# vtk DataFile Version 5.1
vtk output
ASCII
DATASET POLYDATA
POINTS 18360 float
69.4753 3.13046 -68.1073 71.8158 3.73117 -68.1255 71.8369 4.16588 -69.3803 
69.4686 2.92486 -68.2588 71.8894 3.8234 -68.347 69.8565 3.80971 -68.8207 
71.7852 4.28354 -68.9982 68.7994 2.77439 -68.3121 71.8458 4.18433 -69.3929 
68.1685 2.92136 -68.8474 71.7327 3.86786 -69.7224 69.0182 2.86486 -68.5272 
72.1636 3.96202 -69.2588 69.4743 3.77612 -68.4631 71.659 4.14055 -67.9616 
70.0734 2.96019 -68.3682 71.6951 4.4012 -68.0223 69.718 3.33568 -68.8419 
71.8053 4.86619 -68.9566 68.9661 2.88457 -68.2445 72.0772 4.3379 -68.2447 
68.8783 3.013 -68.415 71.2607 3.8763 -68.0273 69.6268 3.34908 -68.267 
71.4775 4.24354 -68.6509 69.1176 3.06581 -67.975 70.9848 5.16364 -69.189 
70.265 2.6412 -67.8284 71.3462 4.73592 -68.6939 69.9643 3.71021 -68.3531 
71.1084 4.09832 -68.417 69.2726 3.89397 -67.3603 70.6953 4.95405 -69.2891 
70.1533 4.0227 -68.3223 70.9257 4.72524 -69.2036 68.8368 3.08785 -67.9894 
71.4594 4.84396 -69.1813 68.7555 3.29229 -68.0792 70.5593 3.8931 -68.5218 
69.7077 2.65508 -68.835 70.6331 4.07919 -68.6682 69.3637 2.52684 -67.5618 
72.1653 5.24489 -68.3699 69.0794 3.335 -68.4835 70.924 5.41429 -69.2127 
70.0719 4.0026 -68.1689 70.6909 5.10918 -68.5148 68.3643 3.03572 -67.8953 
70.7739 4.69039 -68.674 70.0172 2.92835 -67.613 70.4648 3.78379 -69.1438 
68.8478 2.73352 -67.8688 70.9667 5.93549 -67.5886 69.2673 4.23801 -68.2409 
70.6831 5.6065 -68.0165 68.9924 2.9731 -68.9107 70.3297 4.24092 -68.473 
68.7579 3.41208 -67.9963 69.7042 4.88415 -68.0355 70.1527 2.8835 -67.7067 
69.8147 5.1085 -67.7218 69.0855 3.99978 -68.5374 70.5173 5.53893 -67.9915 
69.0749 3.25103 -67.832 71.1326 5.47477 -67.9391 69.3617 2.93398 -69.1045 
70.1728 4.99608 -68.2607 68.7403 3.3284 -67.7901 69.7612 4.96764 -68.6587 
69.4166 2.6145 -68.0065 68.783 5.20237 -68.8076 68.8447 2.71595 -68.0287 
69.7052 6.07693 -68.5453 68.2193 3.22812 -68.5024 69.5047 5.98442 -67.9728 
69.4286 3.16629 -68.3198 70.2606 5.22062 -68.0441 69.8471 2.83778 -67.7918 
69.3965 4.92056 -67.9854 69.7395 3.67565 -67.8581 69.4036 5.64193 -67.0359 
69.6811 3.7005 -68.3998 68.7962 4.78416 -67.6212 68.627 3.02863 -68.6801 
69.1453 5.93306 -68.7031 68.6203 3.2288 -68.566 69.4574 5.26518 -68.2094 
68.9559 2.57198 -68.235 69.3405 4.72087 -68.835 69.4406 3.91484 -68.3916 
69.756 5.55883 -68.2634 69.852 3.99134 -67.8684 68.8828 5.47661 -68.7555 
68.1861 3.6372 -68.0065 68.3901 5.8456 -67.985 69.5637 3.42024 -68.2381 
69.396 4.96773 -67.5863 69.3777 3.07397 -69.3845 68.9369 5.47904 -67.8989 
69.4422 2.75536 -67.8982 68.33 4.17316 -68.6871 69.1458 3.23531 -68.8008 
69.2519 5.97015 -68.383 68.9958 3.17939 -69.1004 68.2877 5.63795 -68.1406 
69.4099 3.19085 -69.0203 67.7722 5.62805 -67.7225 68.1641 3.27637 -68.3458 
67.1877 4.68272 -67.8401 69.2663 3.00145 -67.4801 68.4333 5.14616 -68.43 
69.2077 3.26754 -69.1337 68.0935 5.12364 -68.1847 70.1627 3.79117 -67.9759 
67.7815 5.56621 -68.4508 69.3501 3.67225 -68.1931 68.0415 3.80087 -67.8357 
69.5378 3.19735 -69.1887 68.393 5.17771 -67.6321 69.947 2.28512 -68.6826 
68.1152 4.99841 -67.8184 69.3745 2.63236 -68.1302 67.5916 5.3407 -68.1258 
69.3305 2.94835 -68.1529 67.1569 4.97424 -66.9519 69.0706 3.87436 -68.1432 
67.1825 4.51749 -68.2694 69.1493 2.17882 -69.0908 67.3384 4.59525 -68.5751 
69.8509 3.26754 -68.6351 67.4729 3.7537 -68.3019 70.1688 2.67916 -68.8761 
66.8648 3.85155 -68.7749 69.0418 3.47732 -68.6751 67.832 4.79979 -68.9942 
69.2258 2.30599 -68.0625 67.0889 3.95853 -68.2857 69.781 3.01601 -68.4095 
66.5691 4.55467 -68.0125 68.8848 2.82564 -67.6453 67.581 4.49691 -67.2934 
69.2107 4.42168 -68.7168 66.3699 4.86959 -67.1148 69.6884 3.136 -68.1823 
67.3271 5.35196 -67.7975 69.3184 2.92466 -68.8569 67.6712 3.67526 -67.476 
70.6514 3.44422 -69.6468 67.3834 3.68215 -66.9258 68.9658 3.50761 -68.5769 
66.9065 3.85456 -68.0085 69.9237 3.8334 -68.5511 66.7017 3.99862 -67.4895 
69.1397 2.6544 -68.7549 67.3968 2.52005 -67.554 68.7105 3.67448 -67.4611 
66.9301 2.98912 -67.6526 68.6937 2.51898 -69.2267 67.4773 3.04348 -66.7961 
69.004 1.5354 -69.0157 66.3633 2.54092 -68.4699 70.0606 3.11115 -68.1023 
67.556 3.46781 -68.2322 69.029 4.06842 -68.2028 66.8369 3.06261 -68.2894 
68.9876 4.49633 -68.4385 66.606 3.58177 -67.3518 68.7618 3.20638 -68.323 
66.4091 3.23686 -67.4538 69.9842 2.79468 -68.1311 66.2864 2.81302 -68.3829 
69.8152 2.92058 -68.4206 66.1692 3.02776 -68.1974 68.758 4.35926 -68.5985 
67.179 3.01941 -67.7914 69.1811 2.618 -68.5843 66.7393 2.56839 -67.9943 
69.2555 3.60837 -68.6785 66.9259 2.47161 -67.7693 69.2913 2.46666 -68.8562 
67.3399 2.8802 -67.1663 70.5312 3.97852 -68.9696 66.5025 2.92389 -68.0951 
68.7825 2.58742 -68.3511 67.1339 2.1961 -67.4709 69.3164 2.84059 -69.0739 
66.8045 3.20813 -68.5684 69.9704 3.55682 -68.687 66.6948 1.99564 -68.2413 
69.0501 2.96 -69.8586 66.6165 2.29823 -67.9499 69.3981 2.67323 -68.9529 
66.9943 2.05359 -67.9253 68.9127 3.54828 -68.9061 67.4637 1.8839 -68.1116 
68.6973 3.40102 -67.8983 66.9541 2.44976 -68.0247 68.8429 3.41878 -68.4543 
67.1133 1.63471 -68.053 69.6456 2.55626 -68.0702 66.6167 2.27774 -67.9947 
69.9296 3.61847 -68.2026 67.2732 1.5488 -67.6884 67.5512 3.0297 -68.1132 
67.6312 2.41685 -66.9813 69.3308 2.86079 -68.3935 67.1112 2.51888 -68.079 
69.5307 3.10542 -68.6791 67.4541 2.0567 -67.9667 70.0914 2.70847 -68.0401 
67.6532 1.68004 -68.1355 69.4674 2.80332 -68.5961 67.4482 2.6911 -68.4938 
68.9057 3.46868 -68.1376 66.6065 1.28232 -67.9484 69.1863 2.57888 -68.2581 
67.6569 1.6648 -67.5568 69.8499 3.21162 -68.2815 67.9716 1.63791 -68.453 
69.1502 3.20997 -68.5193 67.4453 1.32222 -68.2536 69.6429 2.43015 -68.1723 
66.9174 1.12952 -68.2727 69.197 3.37345 -68.5436 67.7164 1.28145 -67.8474 
69.6714 2.64887 -67.8887 67.6227 1.1204 -67.9057 68.6337 2.52014 -68.1979 
67.8029 1.44085 -67.8554 70.0107 3.4679 -68.6346 68.1145 1.49045 -68.3472 
68.6916 2.98601 -68.3129 68.2912 1.44386 -68.5374 69.9943 3.687 -69.2706 
68.0216 0.634287 -68.7655 70.2703 3.1757 -69.0165 67.4286 0.701018 -67.4911 
70.0278 3.30093 -68.7071 67.936 1.56268 -68.2141 69.4856 3.63788 -67.9026 
67.9602 1.79964 -67.908 68.6549 4.10521 -67.7553 67.427 1.57151 -68.6684 
69.1504 2.76313 -68.8876 68.3417 1.46929 -68.4407 69.3941 2.88845 -68.8199 
68.9315 1.62675 -69.1845 69.6851 3.46218 -68.6522 68.3712 1.21893 -68.5991 
69.529 3.98775 -68.952 68.6171 1.47774 -68.1753 69.0685 3.62623 -67.9693 
68.3328 1.10622 -68.6174 69.3022 3.84 -68.917 68.4341 0.384024 -68.2172 
68.7201 2.62974 -68.2646 68.8974 1.0873 -68.9886 68.9315 2.90107 -68.8448 
68.9943 0.529299 -68.9239 69.1554 2.62305 -68.2171 69.2419 0.321662 -68.1679 
69.7462 3.0196 -68.5914 70.3333 1.52142 -69.1649 69.0543 3.42655 -68.2976 
69.2938 0.252679 -68.7125 70.2097 2.75526 -68.3974 69.5628 1.44522 -69.028 
69.6359 3.03911 -68.1693 69.7405 1.68131 -67.6309 68.4338 4.20326 -68.8739 
69.3447 0.600591 -68.4833 69.9554 2.67294 -67.9568 68.3272 0.619066 -68.4692 
69.168 3.25016 -68.3451 69.6553 0.286811 -68.707 69.6606 3.17463 -69.9701 
69.3884 1.50764 -68.9366 68.9491 3.24162 -68.558 69.8914 1.02983 -68.2956 
69.6438 3.79165 -68.5019 68.9247 0.816549 -68.0398 68.6506 3.77554 -67.703 
70.0862 0.411496 -68.4853 69.0528 4.27373 -68.4743 70.3013 1.17641 -69.237 
68.9141 3.00747 -67.7932 69.8977 1.09642 -69.0262 68.7171 4.14977 -68.7003 
69.5135 0.787182 -68.562 69.7607 3.56284 -68.5378 70.2316 1.29397 -68.5869 
70.0723 2.48578 -67.8823 70.8813 2.618 -68.3008 69.4205 2.90049 -68.0547 
70.1117 -0.0302697 -68.7274 69.9693 3.64934 -67.4758 70.822 0.899103 -68.6159 
69.7426 3.96299 -68.7091 70.3498 1.70159 -68.7937 69.3692 3.50091 -68.4032 
71.1032 0.730742 -69.0352 69.5394 3.43033 -67.9989 71.081 0.859854 -67.8455 
69.2635 3.02582 -68.8219 70.5774 2.38919 -68.9689 68.8528 3.73612 -68.3338 
70.882 2.34414 -68.5329 69.6559 2.62625 -69.476 71.0718 1.98681 -69.4337 
68.8728 3.68895 -67.7543 71.0623 1.33513 -68.6726 69.5536 2.81409 -68.5297 
70.9683 1.8609 -68.7676 69.0361 3.04183 -69.6333 71.2201 1.97749 -69.0976 
69.0839 3.00427 -67.6003 70.9721 1.60005 -68.1986 69.3116 3.946 -68.5602 
71.6459 2.42355 -68.1162 69.521 1.15156 -68.3114 70.7684 2.36705 -69.2123 
69.4638 4.16714 -68.6224 71.434 2.44015 -67.959 69.351 2.8636 -69.0226 
71.2678 2.17882 -68.1765 69.1492 2.93884 -67.6971 70.8282 2.45413 -68.8286 
69.4185 2.78846 -68.369 71.2427 2.44472 -68.4431 69.5938 2.84681 -67.8879 
71.2166 2.64159 -68.6421 68.5287 2.92437 -67.9397 71.0927 3.27967 -68.1206 
68.8036 3.25472 -67.6513 71.4177 2.27619 -68.3933 69.6197 2.37453 -68.8684 
71.7226 1.72159 -68.3353 69.9193 3.45538 -68.4982 71.6888 3.79709 -68.5696 
69.4622 3.62225 -68.7638 71.6928 4.39819 -68.8071 69.1656 3.26045 -68.6477 
71.4476 2.98068 -68.1756 69.1329 3.87863 -68.8241 71.382 2.45879 -68.5404 
70.0112 4.3611 -69.3312 70.4727 2.26745 -68.2155 69.2064 3.37995 -68.7585 
71.8457 2.25483 -67.8831 69.0795 3.00368 -67.9945 71.2075 2.87797 -68.9052 
69.0215 4.09919 -68.1537 71.9327 3.14872 -68.8699 69.2657 3.93125 -68.0347 
71.9178 3.36549 -68.7671 69.6977 3.02552 -67.5558 70.6095 3.54158 -69.2889 
69.627 3.18871 -69.2573 70.6546 4.1188 -69.2054 69.4677 2.66867 -69.3278 
74.4622 3.67885 -69.486 74.6859 3.68924 -68.9909 74.406 4.99472 -69.2322 
74.8021 5.45399 -68.3005 74.7299 4.87221 -67.6773 75.3905 4.54429 -68.7891 
74.4507 5.00113 -68.991 74.287 5.57951 -68.8981 74.1317 5.93772 -68.8015 
74.2906 5.85569 -68.1655 74.4661 5.74415 -68.9264 73.136 5.64271 -69.3306 
73.1955 5.95481 -68.8485 73.9989 5.51204 -68.3521 73.5868 6.55775 -68.492 
73.5552 5.81415 -68.8521 73.5885 6.61211 -69.4389 73.7898 6.22856 -68.4731 
72.6786 6.65648 -69.0738 73.0507 6.32904 -68.8972 72.4743 6.4633 -69.5278 
73.0566 7.23593 -68.9296 72.0749 6.27273 -68.1021 72.8581 6.70443 -68.2423 
71.919 6.48601 -68.3036 71.9847 6.69696 -69.8212 72.2012 7.29282 -69.4366 
72.1991 7.14322 -68.4171 72.2902 6.84655 -68.2281 71.9873 7.64404 -67.6636 
71.9156 6.99974 -67.603 70.6965 6.99071 -68.7927 71.0876 7.87955 -67.6646 
71.1507 7.11303 -68.6573 70.3534 7.86683 -68.656 71.0242 7.48648 -68.2465 
[...]
POINT_DATA 18360
VECTORS deformation float
3.13916 -2.31115 -0.0804787 3.14376 -2.2985 -0.0739919 3.12448 -2.32973 -0.0782111 
3.12322 -2.33871 -0.0861569 3.10792 -2.35472 -0.0859 3.1065 -2.36072 -0.089926 
3.09519 -2.37402 -0.0898425 3.09355 -2.37451 -0.0945236 3.08286 -2.38513 -0.0928873 
3.07999 -2.38192 -0.097346 3.06744 -2.38838 -0.0964682 3.06109 -2.3826 -0.103967 
3.04654 -2.38215 -0.103864 3.04116 -2.37405 -0.112424 3.02654 -2.36991 -0.114134 
3.02137 -2.35845 -0.120869 3.00876 -2.35229 -0.121379 3.00318 -2.33838 -0.126343 
2.99236 -2.32976 -0.126366 2.98473 -2.31238 -0.134695 2.97089 -2.29734 -0.134905 
2.96469 -2.27961 -0.142645 2.95122 -2.26147 -0.143159 2.94783 -2.24286 -0.152052 
2.93553 -2.22316 -0.151261 2.93537 -2.20426 -0.162425 2.92268 -2.1827 -0.160277 
2.92433 -2.16299 -0.173881 2.91119 -2.13934 -0.172078 2.90658 -2.11288 -0.183221 
2.89193 -2.08574 -0.183142 2.88972 -2.05909 -0.195455 2.87837 -2.03128 -0.192663 
2.87735 -2.00264 -0.204396 2.8614 -1.97326 -0.203963 2.85599 -1.94113 -0.216123 
2.84283 -1.91183 -0.216716 2.83864 -1.87668 -0.229464 2.81994 -1.84354 -0.231271 
2.81507 -1.80833 -0.242973 2.79691 -1.77456 -0.24706 2.79003 -1.73934 -0.262112 
2.7751 -1.70322 -0.265467 2.76845 -1.6674 -0.277319 2.75434 -1.63058 -0.281657 
2.74925 -1.59454 -0.296645 2.73516 -1.55708 -0.301762 2.73317 -1.52031 -0.317235 
2.71807 -1.48347 -0.321008 2.71299 -1.44483 -0.337823 2.69678 -1.4055 -0.340329 
2.69189 -1.36732 -0.358147 2.67815 -1.32702 -0.365359 2.67513 -1.2892 -0.379199 
2.66242 -1.24896 -0.387432 2.66079 -1.20693 -0.399855 2.64393 -1.16365 -0.408922 
2.64126 -1.12228 -0.423454 2.62597 -1.07784 -0.431895 2.62672 -1.03888 -0.446544 
2.60944 -0.994074 -0.453132 2.60728 -0.9536 -0.463985 2.59187 -0.910372 -0.471996 
2.58899 -0.868426 -0.484105 2.57308 -0.822628 -0.490472 2.56595 -0.780878 -0.499273 
2.55095 -0.735162 -0.508131 2.54424 -0.694892 -0.521448 2.53137 -0.650123 -0.527814 
2.52581 -0.610042 -0.542507 2.51368 -0.566365 -0.549575 2.5094 -0.527298 -0.5649 
2.49772 -0.483795 -0.573983 2.49497 -0.445724 -0.588564 2.48334 -0.402488 -0.600982 
2.48356 -0.365931 -0.616576 2.46872 -0.322867 -0.628334 2.46803 -0.286371 -0.644262 
2.45051 -0.241704 -0.654296 2.44943 -0.206381 -0.669096 2.43249 -0.16105 -0.679634 
2.4298 -0.124867 -0.689959 2.41597 -0.0820956 -0.700826 2.41471 -0.0465156 -0.710944 
2.40211 -0.00556675 -0.722878 2.40488 0.0299853 -0.736153 2.39058 0.0701371 -0.74989 
2.39254 0.10469 -0.763798 2.37808 0.144977 -0.775949 2.37856 0.17851 -0.790218 
2.36409 0.219093 -0.803182 2.36148 0.251206 -0.817653 2.34918 0.289747 -0.828443 
2.34801 0.32112 -0.843812 2.3369 0.359154 -0.857874 2.33916 0.387376 -0.871527 
2.32709 0.426606 -0.886797 2.32787 0.454956 -0.895437 2.31791 0.491295 -0.913475 
2.31946 0.519373 -0.92494 2.31127 0.553934 -0.939244 2.31511 0.58159 -0.949338 
2.30775 0.614365 -0.966144 2.31062 0.638585 -0.974787 2.30435 0.669005 -0.993525 
2.30873 0.692508 -1.00375 2.30342 0.722255 -1.02358 2.30904 0.744927 -1.03507 
2.30566 0.773735 -1.05399 2.31206 0.794944 -1.06566 2.30919 0.8219 -1.08079 
2.31566 0.840011 -1.08827 2.31301 0.86553 -1.10551 2.32082 0.882707 -1.11566 
2.31849 0.905706 -1.12967 2.32698 0.921531 -1.1396 2.3251 0.943345 -1.15531 
2.33736 0.956751 -1.16254 2.33266 0.978745 -1.17949 2.34233 0.992125 -1.18701 
2.34062 1.01208 -1.20317 2.35075 1.02452 -1.21209 2.35022 1.04289 -1.22679 
2.36304 1.05406 -1.23583 2.36173 1.07343 -1.25072 2.37471 1.08478 -1.25493 
2.37571 1.10156 -1.26814 2.39029 1.11093 -1.27094 2.39161 1.12675 -1.28537 
2.40484 1.13466 -1.28796 2.40695 1.1485 -1.30172 2.42173 1.15665 -1.30417 
2.42551 1.16975 -1.31725 2.4388 1.17485 -1.32183 2.44291 1.18539 -1.33342 
2.45706 1.19153 -1.33977 2.46305 1.20245 -1.35182 2.47728 1.20683 -1.35641 
2.48291 1.21776 -1.36722 2.49738 1.22151 -1.37121 2.50262 1.23051 -1.38043 
2.51878 1.23437 -1.37965 2.5241 1.2414 -1.39036 2.54026 1.24335 -1.38871 
2.54554 1.24981 -1.39692 2.56344 1.2499 -1.39413 2.56915 1.25621 -1.40506 
2.59011 1.25439 -1.40068 2.59344 1.26394 -1.41311 2.61278 1.26515 -1.40801 
2.61924 1.27142 -1.41653 2.63717 1.26935 -1.41232 2.64487 1.27548 -1.41919 
2.66376 1.27501 -1.41441 2.67277 1.27937 -1.42174 2.69217 1.28004 -1.41804 
2.70369 1.28307 -1.42309 2.72324 1.28036 -1.41389 2.73272 1.28331 -1.42199 
2.7553 1.27971 -1.41187 2.76347 1.28349 -1.41566 2.7836 1.2774 -1.41088 
2.79072 1.28149 -1.41173 2.80901 1.27765 -1.40604 2.81736 1.27778 -1.40738 
2.83502 1.27373 -1.40194 2.84465 1.27504 -1.40405 2.86426 1.27086 -1.39675 
2.87386 1.2716 -1.39831 2.89583 1.26687 -1.3916 2.90569 1.26725 -1.39111 
2.92893 1.25942 -1.38458 2.93631 1.26047 -1.38513 2.95472 1.25483 -1.37576 
2.96306 1.255 -1.37799 2.98258 1.2493 -1.36834 2.99177 1.24772 -1.37032 
3.01224 1.24192 -1.36057 3.02232 1.24035 -1.3635 3.04384 1.23441 -1.35217 
3.05592 1.2337 -1.35514 3.07763 1.22913 -1.34039 3.08776 1.22782 -1.33995 
3.10968 1.22197 -1.32789 3.12086 1.22075 -1.32703 3.14527 1.2124 -1.31202 
3.15313 1.21002 -1.30964 3.17414 1.20202 -1.29605 3.18499 1.19874 -1.29462 
3.20469 1.18975 -1.27858 3.21649 1.18773 -1.27949 3.23652 1.17904 -1.26497 
3.24752 1.17773 -1.26352 3.26922 1.16816 -1.25099 3.28027 1.16701 -1.24741 
3.30319 1.15897 -1.23814 3.31359 1.15642 -1.23189 3.33562 1.14848 -1.22189 
3.34728 1.14559 -1.21698 3.37107 1.13519 -1.20867 3.38124 1.13516 -1.20223 
3.40275 1.12468 -1.19237 3.41136 1.12537 -1.18562 3.43021 1.11673 -1.17368 
3.44031 1.11614 -1.16676 3.46089 1.11003 -1.15123 3.47095 1.10762 -1.1414 
3.4917 1.0997 -1.12606 3.5023 1.09638 -1.11632 3.52383 1.0879 -1.10319 
3.53475 1.0839 -1.09114 3.55803 1.07282 -1.07781 3.56547 1.06961 -1.06635 
3.58321 1.06124 -1.05362 3.59147 1.05775 -1.04212 3.6112 1.04773 -1.02919 
3.61971 1.04428 -1.0179 3.64344 1.03193 -1.00454 3.64911 1.03011 -0.991398 
3.66825 1.01959 -0.978811 3.67318 1.02007 -0.966724 3.69095 1.00937 -0.954114 
3.69478 1.00991 -0.94079 3.70963 1.00365 -0.927445 3.7143 1.00242 -0.915436 
3.73014 0.995545 -0.903455 3.73768 0.992648 -0.889757 3.75114 0.984533 -0.875742 
3.75709 0.982692 -0.861366 3.77074 0.975133 -0.845541 3.77507 0.971004 -0.83137 
3.78937 0.9628 -0.816831 3.79418 0.95811 -0.803277 3.81092 0.948754 -0.787678 
3.81546 0.943749 -0.777181 3.83419 0.931612 -0.764246 3.83932 0.92818 -0.755167 
3.85722 0.91526 -0.741625 3.85978 0.914442 -0.729315 3.87477 0.904167 -0.718256 
3.87703 0.903469 -0.703011 3.89123 0.896769 -0.690326 3.89049 0.894933 -0.673022 
3.90412 0.888108 -0.658431 3.90602 0.884837 -0.644665 3.92118 0.877883 -0.630159 
3.9244 0.87353 -0.616162 3.94205 0.865794 -0.604325 3.9426 0.861562 -0.591164 
3.95625 0.852359 -0.579141 3.95334 0.849793 -0.566197 3.96514 0.841374 -0.556611 
3.96329 0.839336 -0.541488 3.97133 0.831737 -0.531002 3.97051 0.828208 -0.519113 
3.97869 0.819934 -0.510463 3.97909 0.815948 -0.497221 3.98821 0.807725 -0.489553 
3.98897 0.802766 -0.479115 3.99926 0.793911 -0.473516 4.00103 0.788265 -0.463044 
4.01287 0.777931 -0.455744 4.01614 0.772164 -0.444194 4.02764 0.761249 -0.439264 
4.02587 0.759946 -0.427842 4.03795 0.747683 -0.422926 4.03513 0.745936 -0.411323 
4.04906 0.732774 -0.407219 4.04607 0.730978 -0.397017 4.05755 0.720697 -0.389094 
4.05338 0.718648 -0.378784 4.06216 0.706514 -0.373838 4.05558 0.70721 -0.360963 
4.0616 0.697007 -0.354475 4.05677 0.694895 -0.343032 4.06629 0.683579 -0.33357 
4.05716 0.681949 -0.32594 4.06156 0.67076 -0.319991 4.05452 0.66646 -0.311035 
4.06118 0.654464 -0.305966 4.05261 0.649283 -0.295338 4.05345 0.637717 -0.291462 
4.04583 0.631484 -0.277948 4.04846 0.618188 -0.272781 4.04364 0.610974 -0.259716 
4.04475 0.596211 -0.256972 4.03676 0.590553 -0.24324 4.03303 0.577072 -0.23804 
4.02265 0.569411 -0.226742 4.02025 0.554775 -0.222928 4.00972 0.544897 -0.210887 
4.00712 0.528314 -0.209491 3.99721 0.516195 -0.195153 3.99346 0.497892 -0.192904 
3.98363 0.484195 -0.177566 3.97979 0.464383 -0.176725 3.96861 0.450015 -0.160556 
3.9668 0.425493 -0.155666 3.95329 0.412327 -0.141728 3.94793 0.388999 -0.138397 
3.93458 0.372048 -0.124673 3.92747 0.347485 -0.12336 3.91221 0.327101 -0.111181 
3.90232 0.298048 -0.1064 3.88746 0.276655 -0.0949081 3.87638 0.244464 -0.0926036 
3.85998 0.220437 -0.0825058 3.84901 0.184421 -0.078115 3.83268 0.157787 -0.0696177 
3.81878 0.121488 -0.071138 3.79792 0.0918111 -0.0613768 3.78316 0.049957 -0.0611721 
3.76181 0.0180633 -0.0528756 3.74786 -0.0266916 -0.0514693 3.72787 -0.0620742 -0.0469025 
3.71161 -0.10898 -0.0512683 3.68851 -0.14745 -0.0438222 3.67394 -0.198219 -0.0451669 
3.65133 -0.239588 -0.038447 3.63873 -0.293129 -0.0398939 3.61712 -0.338266 -0.0312372 
3.60566 -0.39443 -0.0343346 3.58588 -0.44327 -0.0290513 3.57381 -0.50174 -0.030886 
3.54981 -0.549948 -0.0255646 3.53384 -0.608606 -0.0308506 3.51038 -0.659551 -0.0222022 
3.49687 -0.719315 -0.0285201 3.47345 -0.772647 -0.0217959 3.46053 -0.833223 -0.0292728 
3.43852 -0.888444 -0.0215764 3.42874 -0.950456 -0.0292199 3.40896 -1.00785 -0.0228071 
3.40348 -1.07023 -0.0302199 3.38238 -1.12952 -0.0227116 3.37457 -1.19073 -0.02811 
3.35198 -1.2507 -0.0242617 3.3459 -1.31202 -0.0303963 3.32702 -1.37235 -0.0272602 
3.32421 -1.43272 -0.0329582 3.30959 -1.49417 -0.0315646 3.30887 -1.55101 -0.0381361 
3.28865 -1.60694 -0.0378541 3.28353 -1.65989 -0.0420167 3.26511 -1.7145 -0.0422559 
3.26606 -1.76529 -0.0468801 3.24533 -1.81506 -0.0475889 3.24211 -1.85913 -0.0538622 
3.22314 -1.90618 -0.0545283 3.21862 -1.94617 -0.0607814 3.20347 -1.99002 -0.0575759 
3.20113 -2.02695 -0.0640887 3.18859 -2.06771 -0.0605058 3.18933 -2.10086 -0.0672233 
3.17791 -2.13886 -0.0620982 3.17867 -2.16727 -0.0690197 3.17017 -2.20284 -0.0621202 
3.16934 -2.22618 -0.066763 3.16104 -2.25736 -0.0659689 3.1581 -2.27639 -0.0721422 
3.14507 -2.29012 -0.0616551 3.11952 -2.32277 -0.0681846 3.10019 -2.34998 -0.0740697 
3.08685 -2.37208 -0.0824751 3.07812 -2.38958 -0.0886839 3.06441 -2.39622 -0.0904511 
3.04322 -2.39167 -0.0932726 3.02462 -2.38243 -0.100002 3.00682 -2.36692 -0.108002 
2.99305 -2.34822 -0.115054 2.9714 -2.3172 -0.120405 2.94931 -2.28089 -0.12673 
2.93123 -2.24292 -0.135325 2.91532 -2.20252 -0.146015 2.90232 -2.16086 -0.156197 
2.88833 -2.1128 -0.167635 2.8693 -2.05606 -0.177819 2.85225 -1.99849 -0.191174 
2.835 -1.94029 -0.202096 2.81769 -1.87757 -0.215835 2.79534 -1.80766 -0.229109 
2.77539 -1.74021 -0.246832 2.75381 -1.66695 -0.26665 2.73316 -1.59273 -0.285045 
2.71394 -1.51881 -0.303779 2.69559 -1.44363 -0.320526 2.67593 -1.36378 -0.342478 
2.6593 -1.28636 -0.368291 2.64332 -1.20591 -0.391795 2.62273 -1.117 -0.415351 
2.60471 -1.03045 -0.437413 2.58707 -0.945278 -0.455233 2.56958 -0.86049 -0.476101 
2.55168 -0.773348 -0.493159 2.5327 -0.687769 -0.511957 2.51447 -0.603742 -0.534586 
2.49666 -0.51968 -0.559237 2.4805 -0.436961 -0.582365 2.46387 -0.35432 -0.610887 
2.44846 -0.274342 -0.635977 2.43086 -0.194628 -0.66405 2.41427 -0.115058 -0.685633 
2.39843 -0.037192 -0.709852 2.38338 0.0389567 -0.735796 2.37028 0.114406 -0.762343 
2.35784 0.189862 -0.790587 2.34508 0.261423 -0.814524 2.33133 0.331471 -0.842887 
2.32039 0.399401 -0.873936 2.31097 0.465812 -0.903997 2.30323 0.529822 -0.931575 
2.29765 0.591196 -0.959839 2.29524 0.648488 -0.985915 2.29364 0.70212 -1.01331 
2.29383 0.754695 -1.04491 2.29702 0.805155 -1.07663 2.30052 0.85073 -1.1019 
2.3057 0.892889 -1.1253 2.3113 0.931985 -1.14988 2.31769 0.968649 -1.17391 
2.32562 1.00265 -1.19747 2.33485 1.03484 -1.22175 2.34538 1.06552 -1.2464 
2.35761 1.09421 -1.26961 2.37158 1.1204 -1.28958 2.38755 1.14298 -1.30542 
2.40377 1.16404 -1.322 2.42243 1.18229 -1.33574 2.44255 1.19924 -1.35346 
2.46179 1.2158 -1.36862 2.48223 1.22951 -1.38051 2.50234 1.24027 -1.39207 
2.52336 1.2504 -1.40369 2.54652 1.25802 -1.40924 2.56993 1.26585 -1.41852 
2.59537 1.27408 -1.42623 2.62209 1.27954 -1.42736 2.64896 1.28271 -1.42777 
2.67903 1.28553 -1.43062 2.71028 1.28896 -1.43212 2.73704 1.28997 -1.4291 
2.76523 1.28776 -1.42111 2.79312 1.28455 -1.41676 2.82266 1.28174 -1.41336 
2.84989 1.27915 -1.40871 2.87946 1.27488 -1.40198 2.90994 1.26847 -1.39649 
2.93985 1.26408 -1.39167 2.96754 1.25577 -1.38239 2.99709 1.24847 -1.37693 
3.02865 1.24201 -1.37025 3.06246 1.23614 -1.35764 3.09493 1.22782 -1.3418 
3.12653 1.21942 -1.32948 3.1597 1.2095 -1.31297 3.19528 1.19904 -1.29909 
3.22307 1.18886 -1.28091 3.25475 1.1775 -1.26247 3.2881 1.16641 -1.2435 
3.32134 1.15585 -1.22874 3.35522 1.14591 -1.21364 3.38733 1.13673 -1.19717 
3.41832 1.12604 -1.17934 3.44611 1.11662 -1.16024 3.47757 1.10669 -1.13231 
3.50928 1.09495 -1.10586 3.54045 1.08222 -1.0803 3.56986 1.06912 -1.05637 
3.59579 1.0563 -1.03132 3.62241 1.04362 -1.00422 3.64749 1.03275 -0.979106 
3.67128 1.02214 -0.955579 3.69283 1.01229 -0.927139 3.71561 1.00279 -0.901414 
3.74054 0.993247 -0.875787 3.75753 0.980848 -0.845722 3.7747 0.968925 -0.817345 
3.79347 0.955828 -0.79283 3.8144 0.941419 -0.766499 3.83601 0.927016 -0.740759 
3.8561 0.913402 -0.71283 3.87121 0.904749 -0.686477 3.88651 0.893815 -0.659959 
3.90367 0.882578 -0.630439 3.92317 0.871049 -0.604243 3.93638 0.860022 -0.575011 
3.94843 0.84932 -0.548609 3.96029 0.837949 -0.526825 3.96657 0.826032 -0.503232 
3.97456 0.812911 -0.485957 3.98521 0.799448 -0.468314 3.99765 0.785495 -0.449765 
4.01061 0.772386 -0.431439 4.01719 0.758891 -0.415416 4.02598 0.745504 -0.399424 
4.0352 0.732686 -0.380301 4.04073 0.719748 -0.364528 4.0437 0.707822 -0.34711 
4.04787 0.694761 -0.33278 4.04443 0.680642 -0.31408 4.04187 0.664637 -0.295342 
4.03657 0.646586 -0.278069 4.03168 0.628845 -0.261957 4.02835 0.609385 -0.245107 
4.02074 0.588746 -0.228527 4.00683 0.565012 -0.210275 3.99463 0.538069 -0.192882 
3.98479 0.507912 -0.174358 3.96665 0.475554 -0.159092 3.95172 0.440703 -0.142715 
3.93797 0.40227 -0.123175 3.9151 0.359569 -0.104832 3.8955 0.312341 -0.0920412 
3.86664 0.260641 -0.0801128 3.83857 0.202293 -0.068464 3.80937 0.137929 -0.0556051 
3.77073 0.0681043 -0.0474705 3.7339 -0.00898361 -0.0401371 3.69897 -0.0923375 -0.0366134 
3.65786 -0.18115 -0.0284847 3.6216 -0.277458 -0.0232149 3.58858 -0.379447 -0.0200347 
3.55668 -0.486575 -0.0134569 3.51772 -0.595317 -0.0108983 3.48201 -0.708213 -0.0084567 
3.44123 -0.822843 -0.00699283 3.40863 -0.941274 -0.00845657 3.38171 -1.06417 -0.00809472 
3.35094 -1.18681 -0.00869681 3.32038 -1.30999 -0.0122207 3.2991 -1.43293 -0.0196695 
3.28419 -1.55279 -0.0254703 3.25827 -1.66517 -0.031331 3.23721 -1.77044 -0.0353614 
3.22072 -1.86844 -0.0394188 3.1993 -1.95528 -0.0469574 3.18018 -2.03553 -0.052498 
3.16758 -2.11115 -0.0510059 3.16213 -2.18156 -0.0527149 3.16241 -2.24477 -0.0567019 
3.13701 -2.28904 -0.0514141 3.10276 -2.31902 -0.0502294 3.07968 -2.34694 -0.0587988 
3.06341 -2.37117 -0.0643643 3.0507 -2.38987 -0.0700717 3.04139 -2.40299 -0.0741077 
3.02555 -2.40153 -0.0787421 3.0124 -2.39793 -0.0794523 2.994 -2.3832 -0.0901188 
2.97637 -2.36308 -0.0956255 2.96445 -2.34114 -0.0983013 2.93776 -2.30136 -0.110309 
2.91768 -2.26286 -0.114205 2.89939 -2.22258 -0.122446 2.88471 -2.18117 -0.132434 
2.87074 -2.1358 -0.146827 2.85253 -2.08135 -0.161925 2.83517 -2.02407 -0.171776 
2.81832 -1.96375 -0.184894 2.80127 -1.90227 -0.19777 2.78312 -1.83675 -0.212686 
2.76447 -1.77078 -0.225861 2.74862 -1.70681 -0.245354 2.72479 -1.62847 -0.262036 
2.70432 -1.55381 -0.281889 2.68551 -1.48107 -0.302236 2.66596 -1.39892 -0.322323 
2.64768 -1.31966 -0.346254 2.6307 -1.24101 -0.370266 2.61367 -1.15563 -0.391736 
2.59514 -1.06845 -0.415326 2.57741 -0.981105 -0.437578 2.55941 -0.894672 -0.45792 
2.54534 -0.809683 -0.477083 2.52776 -0.723052 -0.496343 2.50953 -0.63846 -0.515729 
2.492 -0.554183 -0.538334 2.47474 -0.469853 -0.564436 2.45796 -0.38694 -0.592744 
2.44177 -0.30489 -0.61969 2.42467 -0.224293 -0.646319 2.40727 -0.145159 -0.672237 
2.39161 -0.0667869 -0.697011 2.37606 0.0101584 -0.720153 2.36091 0.0868083 -0.749493 
2.34707 0.161708 -0.778673 2.3361 0.235674 -0.804431 2.32288 0.306232 -0.831098 
2.31066 0.375361 -0.863109 2.30064 0.442637 -0.891822 2.29242 0.507763 -0.921965 
2.28616 0.570169 -0.950916 2.28186 0.629633 -0.980725 2.27967 0.685609 -1.00922 
2.27888 0.738202 -1.03902 2.28018 0.789358 -1.06963 2.28417 0.836727 -1.09566 
2.28907 0.880721 -1.12376 2.29604 0.922298 -1.15276 2.30066 0.961295 -1.17557 
2.30658 0.996731 -1.2015 2.31521 1.02967 -1.22513 2.32584 1.06042 -1.24636 
2.33766 1.08963 -1.26978 2.35074 1.11631 -1.29228 2.36536 1.1402 -1.31302 
2.3814 1.16158 -1.33159 2.39837 1.18173 -1.34614 2.41687 1.19899 -1.36153 
2.43757 1.21586 -1.37543 2.45763 1.2291 -1.38574 2.47843 1.24124 -1.39868 
2.49923 1.25258 -1.41233 2.52152 1.26182 -1.42031 2.54449 1.27002 -1.42939 
2.56892 1.27756 -1.43645 2.59502 1.28429 -1.44013 2.62291 1.28927 -1.44144 
2.65077 1.29141 -1.44141 2.6795 1.29386 -1.44345 2.7084 1.29623 -1.44243 
2.73849 1.2979 -1.4388 2.76427 1.29328 -1.43469 2.7932 1.29057 -1.42973 
2.8228 1.28737 -1.42377 2.85352 1.28786 -1.42008 2.88143 1.27931 -1.41296 
2.91083 1.27283 -1.40648 2.94038 1.2661 -1.39791 2.96882 1.25856 -1.39411 
3.00012 1.25189 -1.38681 3.0332 1.24484 -1.37622 3.06958 1.23805 -1.3649 
3.09822 1.23092 -1.34886 3.13061 1.2222 -1.3338 3.16555 1.21201 -1.31767 
3.19728 1.20142 -1.30057 3.22824 1.1898 -1.28142 3.25994 1.17908 -1.26516 
3.29383 1.1681 -1.24401 3.32703 1.15769 -1.22756 3.36166 1.14859 -1.21249 
3.39037 1.13768 -1.19584 3.42004 1.12731 -1.17826 3.45003 1.11794 -1.15517 
3.48207 1.10786 -1.12665 3.51483 1.09598 -1.09823 3.54669 1.0824 -1.07147 
3.57186 1.06936 -1.04551 3.5975 1.05695 -1.01902 3.62187 1.04546 -0.995144 
3.64487 1.03514 -0.969476 3.66835 1.02499 -0.938933 3.6913 1.01479 -0.912162 
3.71569 1.00393 -0.886433 3.74033 0.991426 -0.859693 3.755 0.981154 -0.829356 
3.77141 0.968846 -0.803218 3.78986 0.954767 -0.778342 3.80975 0.940714 -0.749223 
3.82873 0.927228 -0.722117 3.84616 0.916066 -0.694972 3.8626 0.904935 -0.672076 
3.88006 0.892945 -0.644982 3.89844 0.882144 -0.617304 3.91606 0.870458 -0.587891 
3.92691 0.860277 -0.561893 3.94051 0.850209 -0.535085 3.94784 0.836302 -0.511111 
3.95616 0.824122 -0.491277 3.96615 0.811294 -0.472377 3.97617 0.798461 -0.454549 
3.98717 0.785565 -0.434882 3.99574 0.771978 -0.415745 4.00334 0.759412 -0.400427 
4.01064 0.747262 -0.383919 4.01775 0.734747 -0.363738 4.02277 0.722733 -0.346759 
4.0274 0.710617 -0.334916 4.02936 0.697109 -0.319037 4.02357 0.681038 -0.297598 
4.01967 0.664367 -0.27843 4.01459 0.647352 -0.262261 4.00859 0.62968 -0.245085 
4.00233 0.610355 -0.226541 3.99467 0.588739 -0.207747 3.98195 0.562634 -0.188609 
3.97454 0.535496 -0.170621 3.95994 0.504435 -0.153439 3.94007 0.470673 -0.136266 
3.92512 0.43494 -0.119191 3.90728 0.395469 -0.0963877 3.88709 0.352052 -0.082872 
3.86596 0.305464 -0.0696151 3.8357 0.251278 -0.0595142 3.8072 0.18981 -0.0473828 
3.77073 0.122094 -0.0328864 3.73237 0.049308 -0.0300713 3.69126 -0.031433 -0.0234666 
3.65341 -0.117372 -0.0134604 3.61607 -0.211266 -0.00653971 3.57812 -0.310893 -0.00711337 
3.54952 -0.416266 -0.00218819 3.50607 -0.524991 0.00597339 3.46769 -0.637405 0.0131959 
3.43118 -0.752587 0.0155582 3.39698 -0.870192 0.0137221 3.36506 -0.992672 0.0174273 
3.33163 -1.11731 0.010814 3.2999 -1.24434 0.00883349 3.27457 -1.37076 0.00137271 
3.25651 -1.49519 -0.00555365 3.23765 -1.61633 -0.0166654 3.21864 -1.72806 -0.0178919 
3.19623 -1.82989 -0.0240738 3.17783 -1.92236 -0.0288444 3.15848 -2.0045 -0.0348633 
3.1426 -2.0827 -0.036572 3.13543 -2.15694 -0.0382887 3.14072 -2.23184 -0.0438702 
3.08999 -2.27694 -0.0249211 3.06065 -2.31203 -0.0361759 3.0404 -2.34322 -0.0379655 
3.02396 -2.37039 -0.0451007 3.01019 -2.38978 -0.0472953 2.99743 -2.40314 -0.0510239 
2.98831 -2.40773 -0.05242 2.97802 -2.40686 -0.060654 2.9708 -2.40394 -0.069796 
2.94857 -2.37696 -0.0720419 2.93348 -2.35581 -0.079501 2.91268 -2.31875 -0.0900093 
2.89272 -2.28178 -0.0962203 2.87403 -2.24125 -0.0995185 2.857 -2.19926 -0.108736 
2.84462 -2.16094 -0.122814 2.82908 -2.10995 -0.134889 2.80952 -2.04841 -0.153487 
2.79303 -1.98839 -0.163079 2.77685 -1.92696 -0.174855 2.76108 -1.86304 -0.192027 
2.74369 -1.79836 -0.205717 2.72766 -1.73243 -0.221689 2.708 -1.66101 -0.241346 