# vtk DataFile Version 5.1
vtk output
ASCII
DATASET POLYDATA
POINTS 10006 float
26.5638 -91.5115 8.48769 25.0507 -92.6574 2.30227 27.2458 -89.737 3.60192 
18.4759 -94.9371 5.80443 25.4852 -91.0891 -0.894599 16.6319 -95.2349 -0.682392 
17.5832 -96.0185 -3.54586 23.4232 -92.7153 -5.8965 29.6307 -86.9638 9.35075 
21.8275 -90.1827 13.5525 16.8262 -93.1441 10.2443 27.8614 -84.2478 9.38405 
29.5227 -87.9493 5.25494 27.4016 -90.3851 -2.45238 29.8655 -86.989 -0.29304 
25.9993 -90.7149 0.353584 24.0714 -88.3218 3.2245 15.5453 -94.3792 1.8134 
24.1531 -90.2394 -4.86976 26.3202 -87.7195 -6.92664 20.061 -92.3421 -11.6826 
28.1453 -87.0034 7.18842 23.0209 -89.2535 -3.85204 28.1506 -82.9492 -5.59829 
10.9943 -94.0891 -1.86835 10.5189 -94.426 -5.27506 13.6727 -93.9228 -12.7775 
16.153 -93.8816 -12.9121 11.0771 -91.3816 13.7756 20.9711 -86.1989 7.14001 
31.5728 -83.3829 3.8981 33.4868 -81.091 10.7727 25.1925 -86.9301 5.27615 
29.8174 -84.0105 0.700792 22.6376 -88.4008 0.578014 26.804 -83.8494 -0.880853 
19.545 -88.366 -1.9435 21.3737 -88.8683 3.08352 13.6215 -91.5517 0.428628 
13.8017 -95.8236 3.68181 11.2864 -94.6487 -1.42211 10.9988 -92.1741 -8.87424 
14.5699 -90.8679 -11.7221 25.1047 -87.8638 16.4438 20.4275 -84.4173 20.2586 
16.4385 -87.1704 19.5637 29.2501 -82.4318 12.8852 29.8419 -81.9091 18.5548 
18.6795 -89.682 14.3417 12.1199 -88.7021 15.9641 18.5023 -85.6919 2.52704 
10.148 -92.483 8.63494 21.2742 -87.604 5.60423 6.43637 -95.6183 -3.09818 
9.38213 -95.9358 3.16323 22.0481 -87.4033 -12.314 17.313 -87.3874 -11.7559 
15.5142 -88.1577 -12.4381 21.1534 -82.3126 23.0927 34.6558 -78.7919 6.43382 
30.3956 -80.7728 10.0942 25.6224 -83.3728 6.75649 9.81679 -90.4236 8.33656 
32.556 -83.1774 1.98993 7.32776 -93.8211 8.28064 4.85572 -93.8816 5.2518 
3.00258 -95.8004 0.844361 0.812836 -94.656 -3.13021 -1.01169 -94.0742 0.578945 
8.50939 -89.7307 -2.91383 26.9488 -83.9258 -8.08169 25.4068 -81.7153 -5.9875 
27.1522 -75.6352 26.217 22.5135 -80.9439 12.7478 17.33 -83.4296 6.30901 
6.43468 -90.9143 13.6625 -0.464589 -92.3561 9.13107 29.8052 -80.5323 -1.57405 
9.2364 -91.8466 -2.18236 25.6279 -82.4861 -1.13322 11.8986 -88.9418 -6.04473 
11.1991 -89.0754 -9.28392 9.97364 -94.5416 -8.71792 10.3522 -92.7721 -5.6592 
5.40291 -95.3589 -7.46753 23.2573 -79.6946 -6.63823 23.7997 -82.755 -9.96703 
17.3029 -84.492 -11.0504 8.10612 -93.0007 -10.1505 12.3181 -86.0074 -11.8918 
29.694 -78.7014 20.9392 25.9255 -79.7437 14.5537 18.2683 -83.9596 22.2814 
32.9833 -80.0216 12.8802 29.5872 -80.7731 14.539 27.3108 -83.1462 11.1541 
30.5757 -80.7329 10.1451 31.5376 -77.8677 11.9406 19.1613 -82.2488 9.46667 
6.41226 -88.266 12.7107 35.2085 -78.0247 11.1177 20.5494 -80.3458 -5.44961 
19.6894 -81.2607 -9.23816 14.0434 -80.8245 -10.5271 18.2491 -79.4678 20.1589 
33.6627 -76.7965 15.7903 32.5648 -75.8422 20.5039 26.8023 -78.1387 8.90801 
4.5594 -87.6504 16.1903 33.8117 -76.5268 7.72851 24.9089 -78.6723 7.11755 
8.81899 -84.6146 7.05294 32.5316 -76.6609 4.09302 27.5186 -75.5139 0.703158 
-2.04316 -90.341 10.5919 24.6208 -78.9467 -3.1533 20.6968 -80.9233 -0.472584 
-0.754533 -90.8129 -0.229653 15.5628 -81.5135 -4.80315 4.28124 -91.4852 -7.1852 
8.67764 -87.5256 -12.0239 24.6733 -74.4215 25.7346 20.8535 -76.9034 22.0844 
36.3587 -74.6112 19.8247 30.6302 -72.8435 14.59 6.25836 -84.1441 21.2648 
31.3448 -71.7546 11.7723 25.4444 -74.5305 11.1485 0.750167 -87.9239 17.641 
6.00266 -88.4088 14.0772 6.04364 -86.1525 11.4275 -1.50884 -88.0103 6.20603 
1.18457 -85.8763 3.44924 26.4793 -76.4545 -0.373148 16.953 -79.9824 -4.28401 
17.4928 -79.8421 -0.899319 0.949104 -88.4547 -2.7475 12.3845 -78.5116 -7.3897 
-0.0198269 -94.5277 -5.53189 -0.459032 -95.1667 -2.34024 -7.88318 -94.402 -4.70174 
3.97979 -89.6299 -11.326 31.8129 -69.8508 26.7406 19.0383 -80.2301 24.8629 
14.4562 -80.4169 25.2165 32.0226 -69.3774 15.1862 4.72442 -83.4537 15.0731 
30.8293 -74.5785 7.04415 4.65868 -84.0348 14.3377 8.37399 -83.4462 9.52252 
-1.35883 -87.2687 8.53297 7.36317 -84.6565 8.40938 21.4883 -80.5325 -3.41515 
-0.101427 -87.7985 1.05873 -6.76188 -93.0219 4.58665 -1.96011 -91.9423 2.64627 
0.197904 -93.1308 -3.33435 10.4205 -84.2805 -12.2767 2.07114 -92.6096 -9.25719 
-7.15958 -88.2695 -10.3107 -10.1674 -92.2978 -6.15879 -2.44435 -88.3605 -10.9723 
36.7559 -71.4711 23.0146 19.5002 -80.8747 21.7644 34.2429 -70.0463 20.0066 
8.50198 -79.7229 23.0185 4.51928 -80.4684 19.2186 29.6306 -70.7159 14.7061 
-1.00662 -84.6149 18.6206 24.338 -72.8548 3.08637 24.6886 -73.8987 -1.43526 
23.2622 -75.4681 -4.03986 12.2519 -81.8929 -2.74045 11.5637 -81.8052 -3.40691 
-3.64207 -87.6744 4.08619 -12.0782 -93.5615 -2.14225 -8.12993 -88.1156 -9.45267 
4.14159 -86.0762 -11.1178 32.2058 -66.0263 27.4881 17.7377 -77.2224 28.7445 
23.0422 -72.8068 19.3695 20.9143 -77.6436 22.9242 12.2962 -76.6026 24.4697 
33.2752 -66.0227 18.5147 27.5417 -71.9326 17.7607 27.3581 -69.2219 22.4519 
6.62301 -78.6291 12.5082 19.9035 -74.8894 8.84536 9.89078 -80.1071 10.7007 
29.3904 -71.0952 8.12285 -4.39181 -87.6231 13.8792 25.8176 -70.1397 7.26203 
23.0759 -70.8725 1.57019 18.7737 -77.3648 -3.7437 -8.15915 -88.6516 4.9378 
-10.4887 -91.945 4.53859 9.75947 -76.9378 -2.15317 -8.71007 -88.7955 -7.63086 
10.6192 -78.7245 -10.334 8.01136 -80.0656 -11.6381 34.8169 -67.3283 27.5616 
23.5075 -72.4707 31.1148 24.6723 -74.8364 26.3939 34.8732 -64.9207 25.2218 
28.1935 -68.07 21.0172 24.1341 -72.1717 16.8094 29.5729 -66.9674 15.5479 
17.3209 -76.5737 18.4037 28.8958 -67.6313 11.7755 23.7536 -71.1953 11.4532 
0.91406 -82.6515 15.9527 -6.49376 -85.416 16.1707 6.44242 -80.615 15.1544 
23.3747 -73.3828 5.47585 20.9844 -71.8314 -1.80459 -16.5628 -90.1135 -1.72543 
-8.52449 -85.7376 -7.11903 -15.6945 -90.4307 -4.08868 2.53075 -78.9877 -11.1839 
2.02713 -81.4569 -12.0317 -4.22484 -81.8973 -11.4486 -6.57601 -84.2602 -10.1219 
27.3534 -71.5732 29.9455 28.7649 -65.0774 35.1944 30.8406 -67.9993 29.2472 
34.4145 -62.0509 27.4952 29.8266 -64.5869 26.5292 24.2549 -71.9458 22.5579 
20.4978 -73.8712 17.3299 27.5004 -66.3706 19.4199 25.6752 -68.2492 17.8338 
6.46336 -76.1105 16.9303 22.1343 -70.9125 10.7935 -10.4919 -88.8635 12.3118 
-5.44604 -90.7264 9.14929 -7.99067 -91.1805 7.87375 21.4309 -69.8856 3.7755 
-5.74149 -88.1403 4.12253 -1.14669 -85.0893 3.50217 -10.3974 -89.3104 6.52445 
14.8358 -81.3077 -5.60324 -9.86423 -88.7873 6.12435 -12.6066 -90.2488 7.16674 
-7.74202 -83.2143 3.36755 14.9296 -78.5014 -9.57793 18.032 -77.3803 -6.94631 
-16.6607 -90.5546 4.84251 -7.43508 -82.947 -7.1336 -12.6775 -87.2985 -8.00016 
28.7832 -66.8497 24.8151 16.5591 -71.3605 26.352 34.6181 -61.7447 23.8971 
8.37974 -75.7814 20.9569 22.2959 -65.735 13.1899 0.05185 -80.2345 17.5496 
3.78327 -77.8893 15.3972 25.2687 -68.325 7.48258 21.7558 -71.3376 6.11615 
-16.7272 -88.3785 7.16906 -8.7209 -84.0667 4.87579 18.2608 -68.1759 -1.33526 
-17.032 -88.0786 7.20725 6.56393 -76.3964 -3.13057 7.39585 -76.9118 -8.52485 
-6.02912 -81.9928 -4.00438 19.1012 -74.0923 -7.23273 -4.06121 -80.9196 -7.82937 
-2.42633 -81.6605 -5.96978 1.53747 -78.6852 -6.54279 14.3284 -76.0352 -10.8246 
4.69713 -78.994 -6.12478 33.7706 -61.9133 34.0395 21.1097 -69.2494 28.6933 
17.9873 -68.1353 23.0546 26.8747 -70.4246 19.7241 30.6471 -60.747 19.5556 
28.5086 -63.1542 16.2491 18.1656 -69.8443 10.3473 -3.87772 -80.8893 14.7686 
-8.09925 -81.1944 14.4501 -20.4571 -86.4638 10.5781 18.7096 -70.7235 4.14583 
10.5897 -77.803 -4.4532 -13.7836 -84.9295 7.24889 -19.4413 -90.413 -1.7529 
-19.7952 -86.4686 -7.26646 12.2985 -77.806 29.8839 14.0541 -74.9356 25.7911 
16.9673 -73.6279 32.6485 34.4818 -54.8422 28.3434 10.4573 -80.3516 24.9376 
6.47048 -80.8643 27.6075 27.5219 -59.7008 24.384 27.1513 -63.2837 21.6609 
9.27509 -73.6097 21.7335 5.88438 -82.0959 22.392 14.2224 -69.8059 19.5029 
9.96574 -70.6299 18.0523 -0.472777 -84.0116 20.8444 -1.15669 -80.9085 25.902 
28.4184 -63.143 16.7448 4.58659 -74.7911 12.1656 25.5068 -62.7262 12.9814 
-5.38258 -77.1155 16.4707 -12.4382 -85.8713 15.5106 16.1462 -71.9197 1.75468 
13.3466 -68.7873 -0.0894717 12.8868 -71.0073 1.68235 16.9032 -68.3032 -0.406502 
-21.1939 -88.358 3.24423 15.9999 -70.7909 -7.87197 10.1178 -76.6278 -10.6378 
26.8683 -59.2851 35.6932 26.7003 -62.7794 35.4375 32.431 -59.9072 28.6312 
17.7779 -69.5802 31.2194 9.62719 -74.6788 32.3911 30.3039 -52.8954 27.8505 
5.37787 -77.3363 19.841 2.14347 -79.0198 28.9018 2.71573 -79.6149 16.5359 
23.478 -63.3391 19.0055 -6.22598 -81.0826 19.2342 -7.71695 -81.5193 22.3304 
23.1427 -60.8499 15.5848 7.36502 -71.1542 15.0462 23.7538 -62.6941 15.1831 
-6.95832 -76.9901 11.5836 23.0984 -67.7545 5.40748 22.401 -70.1319 4.0489 
-21.9644 -84.3465 6.06746 -19.6346 -83.1483 4.00576 -17.7648 -83.3507 3.37357 
7.93777 -75.9534 -5.51525 -6.60262 -82.5276 -7.0638 -20.403 -85.129 4.15975 
10.0446 -67.8293 -6.57203 -21.6642 -88.308 -4.04 -22.8356 -84.1602 -5.4545 
-9.94755 -84.0683 -9.73852 34.0036 -57.6961 33.0077 22.324 -65.8823 33.6368 
15.9128 -69.8706 36.783 15.3861 -67.9757 29.8274 14.6726 -69.2565 28.6436 
28.2219 -59.828 25.4422 13.1092 -70.771 26.0308 25.828 -62.1262 20.8158 
-0.00488338 -76.2331 26.2652 -7.02961 -79.825 26.6959 20.5412 -64.8363 13.7522 
27.1642 -58.9097 16.2654 -1.02768 -75.6337 16.5022 18.9155 -62.0913 6.11645 
1.59771 -74.1554 9.57546 1.42669 -75.9417 12.1499 12.2121 -66.0688 -3.70282 
13.8493 -66.5254 -4.29794 -6.03646 -78.7181 -6.84498 7.58771 -76.8905 -8.40479 
6.10596 -75.2994 -10.3729 7.94761 -69.684 -8.88652 -26.4166 -87.9505 -1.79016 
18.8818 -63.8097 40.116 19.4249 -61.9087 37.3166 35.8686 -52.1914 32.7077 
34.1072 -56.6937 29.2802 29.6289 -56.4656 33.813 5.54341 -72.8541 35.1679 
12.0138 -71.4587 20.9809 7.54731 -70.2688 22.6557 8.99465 -68.2178 27.3069 
7.83434 -74.8864 18.5247 4.0679 -77.5201 15.0386 24.9004 -58.387 16.8182 
-3.15308 -76.8552 17.605 7.52713 -68.2681 13.41 16.9469 -66.1901 10.8681 
-6.72771 -80.3392 17.6629 -10.3691 -82.6842 22.5154 -17.9421 -84.3361 17.4633 
-18.0909 -80.7484 21.4898 -20.7003 -82.5547 17.2974 22.4323 -60.524 11.5695 
[...]
POINT_DATA 10006
VECTORS deformation float
-9.46627 11.2936 -7.13517 -9.48428 11.6518 -6.84935 -9.73647 10.8143 -6.94635 
-9.33894 12.054 -7.09457 -9.7663 10.9817 -6.83336 -9.34715 12.5287 -6.86616 
-9.43238 12.2815 -6.37283 -9.63247 11.4353 -6.54011 -9.78535 10.3706 -7.07651 
-9.34665 11.2352 -7.41652 -9.2194 12.1687 -7.49566 -10.0275 10.2499 -7.0144 
-10.0216 8.82035 -6.69816 -9.9114 9.55105 -6.71397 -9.81177 8.8658 -6.82605 
-10.1235 9.34722 -6.82864 -10.2155 10.4384 -7.07415 -9.29192 12.5871 -7.25926 
-9.92944 10.9153 -6.75151 -9.72654 10.4284 -6.51178 -9.42437 11.6002 -5.93939 
-10.1534 8.64255 -6.69037 -10.106 10.1777 -6.86314 -9.77745 9.43357 -6.70779 
-9.55659 12.6385 -6.54726 -9.51769 12.594 -6.21967 -9.37741 12.3232 -5.8382 
-9.34546 12.0081 -5.58298 -8.89694 11.7186 -7.95207 -10.3918 10.079 -7.17749 
-9.88712 8.37709 -6.72443 -10.099 8.20059 -6.58712 -10.2843 9.09078 -6.8035 
-9.77673 8.49192 -6.89381 -10.4161 9.64042 -6.97183 -9.85592 8.883 -6.81962 
-10.4047 10.0539 -7.0274 -10.431 10.302 -7.1947 -9.40114 12.8148 -7.01108 
-9.14806 12.3328 -7.63205 -9.42467 12.657 -7.17331 -9.44799 12.3657 -6.14811 
-9.3023 12.1774 -5.67032 -9.70561 9.96632 -7.26054 -9.77766 9.42898 -7.11178 
-9.37268 10.1289 -7.62947 -9.96374 9.54301 -6.9948 -9.80959 9.43582 -7.06617 
-9.43144 10.8145 -7.60356 -9.10255 11.0333 -7.86762 -10.6498 9.96322 -7.08603 
-8.72445 11.9597 -8.06787 -10.457 9.40573 -6.94201 -9.21522 12.1853 -7.4056 
-9.11419 12.2534 -7.75955 -9.50553 10.6041 -5.8963 -9.40258 11.2611 -5.67755 
-9.34947 11.7196 -5.61209 -9.92909 9.06171 -6.74952 -9.90318 8.15772 -6.5771 
-10.4056 7.96872 -6.63794 -10.2882 8.44782 -6.65114 -8.26028 11.7646 -8.2804 
-9.79309 8.17812 -6.87558 -8.92943 12.0081 -7.93811 -9.00522 11.9177 -7.8386 
-8.93805 11.8206 -7.78094 -8.73152 11.4785 -7.75666 -8.52813 11.2362 -7.82185 
-9.65843 12.5309 -6.54066 -9.64783 9.84848 -6.41169 -9.85098 9.29351 -6.55531 
-9.84904 8.63949 -6.74155 -10.0124 9.63624 -7.03343 -10.5994 9.82274 -7.1796 
-8.70419 11.5576 -8.13743 -8.57183 11.3944 -7.93214 -9.94392 8.28901 -6.8796 
-9.53928 12.545 -6.9024 -9.93063 8.80586 -6.8372 -9.76409 12.2451 -6.70605 
-9.51188 11.8882 -6.55451 -9.34384 12.0712 -7.12745 -9.61558 12.4305 -6.81958 
-8.99441 11.7932 -7.55058 -9.67632 9.57117 -6.36744 -9.59097 9.99512 -6.15025 
-9.5394 10.4876 -6.03221 -9.00399 11.5262 -7.54944 -9.42766 11.8018 -5.95631 
-9.84024 8.65152 -6.80615 -10.0263 8.99052 -6.93834 -9.58123 9.43656 -7.1738 
-10.0822 7.92512 -6.67912 -10.0633 8.37326 -6.76259 -10.2576 8.6792 -6.73841 
-10.3433 8.03539 -6.67331 -10.3312 7.66636 -6.62363 -10.3604 9.5482 -6.82561 
-8.47086 11.412 -8.26161 -9.92999 7.89027 -6.5678 -9.76568 9.25207 -6.47119 
-9.63443 9.78204 -6.31802 -9.5272 10.976 -6.04809 -9.98896 8.87842 -6.65975 
-9.82319 7.40989 -6.68328 -9.76897 7.87216 -6.62284 -10.329 7.786 -6.62775 
-8.85922 10.9631 -8.10557 -9.89525 7.91559 -6.42968 -10.4874 7.77208 -6.63036 
-7.7981 11.5904 -8.43657 -9.95985 7.95915 -6.54222 -10.2446 7.85594 -6.96777 
-8.15552 10.6866 -7.96619 -10.0179 8.46326 -7.14069 -9.83485 8.96874 -6.70348 
-8.37871 10.7763 -7.89209 -9.65597 9.91232 -6.25268 -8.6442 11.1438 -7.96916 
-9.19707 11.1875 -7.17894 -10.2389 8.41925 -6.43317 -10.1414 8.60404 -6.50125 
-9.59593 7.54266 -6.58291 -10.2646 7.469 -6.77985 -9.07345 10.3908 -7.81637 
-9.98432 7.66458 -6.60641 -10.5838 7.41318 -6.73318 -8.29847 10.7143 -8.06187 
-8.67277 11.0917 -8.26635 -8.54372 11.3917 -8.22581 -7.91289 10.1228 -7.97703 
-8.125 10.2726 -7.80666 -10.2115 8.14237 -7.23314 -9.70477 9.333 -6.39118 
-9.80366 9.22862 -6.50028 -8.48831 11.109 -7.94554 -9.63869 10.2965 -6.29489 
-8.22479 10.5695 -8.70215 -8.00797 10.5516 -8.62438 -8.04342 10.3629 -9.04789 
-8.79066 10.8668 -8.10847 -9.64278 7.86106 -6.56094 -9.60398 8.711 -6.89761 
-9.36813 9.41728 -7.41078 -10.1391 7.62819 -6.61616 -8.48484 10.939 -8.2976 
-10.0521 7.72682 -6.49425 -8.23748 10.8011 -8.23423 -8.08021 11.1821 -8.41537 
-7.8742 10.2895 -8.01178 -7.99395 11.5605 -8.46035 -9.8985 8.61321 -7.04926 
-8.17236 10.3537 -8.10646 -7.75222 10.1892 -8.9086 -7.9871 10.3411 -8.33091 
-8.26175 10.7062 -8.32865 -9.46003 11.2563 -6.34211 -8.501 10.689 -8.58508 
-8.22772 10.3003 -9.18724 -7.96003 10.2366 -9.76664 -8.47306 10.4197 -8.88032 
-9.63882 7.51374 -6.56015 -9.81154 8.86397 -6.74007 -9.6262 7.29735 -6.69104 
-9.15515 9.87378 -7.7188 -8.97808 10.383 -7.95145 -10.4963 7.26433 -6.67238 
-8.04751 10.1336 -7.91579 -10.4754 7.95136 -7.25723 -10.2358 8.43713 -7.34862 
-9.98489 8.66351 -7.21848 -9.68006 9.57217 -6.50773 -9.73292 9.87322 -6.33829 
-7.81775 9.98973 -8.38708 -7.6636 10.2926 -9.56201 -8.08842 10.0679 -9.62857 
-8.92101 10.7535 -7.79771 -10.0307 7.66816 -6.45077 -9.35491 8.75557 -7.10599 
-10.3362 7.95859 -6.28702 -9.9529 8.13952 -6.43821 -9.24896 9.21579 -7.54734 
-9.78462 6.98074 -6.86933 -10.7483 7.34893 -6.22041 -10.6285 7.34431 -6.4247 
-8.40465 10.2417 -8.27802 -10.6631 7.36522 -6.80918 -8.29373 10.8571 -8.60449 
-10.1562 7.54979 -6.64969 -7.90904 10.1262 -7.96106 -10.5887 7.62284 -6.98249 
-10.1784 8.3403 -7.43531 -9.79003 8.8651 -6.96475 -7.4122 9.8942 -8.77547 
-7.53138 9.86494 -9.58509 -9.59769 9.8978 -6.3362 -7.95419 10.0477 -10.1203 
-9.42524 10.8242 -6.33003 -9.23354 10.832 -6.76945 -9.72402 7.28458 -6.54332 
-9.47608 7.75061 -6.81269 -9.69569 7.73827 -6.42101 -9.71018 7.13809 -6.62411 
-10.8797 6.92947 -6.39418 -10.4446 7.69491 -6.07927 -10.0823 7.1782 -6.82394 
-10.1077 8.24175 -6.34731 -10.3034 7.60766 -6.68675 -10.6509 7.07449 -6.81803 
-8.12273 10.1656 -8.05915 -8.00234 9.94043 -7.87504 -8.20986 10.4063 -8.29858 
-10.8155 7.6212 -7.20982 -9.80376 8.64744 -7.33293 -7.19403 10.0489 -10.3052 
-7.88747 9.93202 -9.89338 -7.46704 10.1485 -10.1292 -9.01515 10.3865 -7.48052 
-8.91002 10.5462 -7.85822 -8.65581 10.3523 -8.28872 -8.28754 10.1442 -9.07459 
-9.43163 7.32074 -6.34172 -9.2314 7.05193 -6.45986 -9.60477 7.06028 -6.09414 
-9.97178 6.87881 -6.65278 -10.2626 6.86449 -6.30935 -10.2193 7.57641 -6.13745 
-10.2939 7.72887 -6.12973 -10.9873 6.83128 -6.30055 -10.6925 7.05398 -6.12617 
-8.77482 9.79816 -8.05351 -10.762 7.08674 -6.86066 -7.84388 9.48256 -7.95397 
-7.72969 9.79946 -8.05802 -7.73424 9.66812 -8.21125 -10.5574 8.05938 -7.26578 
-7.68509 9.88102 -8.13169 -7.82373 9.99179 -8.01824 -7.61478 9.66289 -8.46591 
-9.75184 9.10103 -6.79187 -7.38353 9.7515 -9.04608 -7.52671 9.58606 -9.40629 
-7.53386 9.74266 -8.36062 -9.60445 9.07194 -7.12796 -9.67682 8.96493 -7.23462 
-7.44501 9.70687 -9.75339 -8.1356 9.89311 -9.20748 -7.62347 9.95363 -10.5158 
-9.95295 7.07305 -6.03384 -9.21013 8.69131 -7.41041 -9.79417 6.84402 -6.77402 
-9.0523 9.55522 -7.83641 -10.7046 6.9631 -6.67567 -8.13499 9.82338 -8.02701 
-8.3517 9.86247 -8.26056 -10.8532 7.63125 -7.05697 -10.89 7.69068 -7.19295 
-7.74928 9.48243 -8.54912 -7.43315 9.6802 -8.55802 -10.1271 8.45009 -7.3014 
-7.52039 9.66254 -9.31307 -9.03315 9.87673 -7.09114 -9.2258 10.473 -6.66992 
-7.95213 10.0261 -9.09306 -9.72561 8.79466 -7.37952 -8.22792 10.0638 -8.60893 
-8.16598 9.83424 -8.5099 -8.75072 9.83913 -7.87772 -9.56843 8.89393 -7.34772 
-8.99561 9.84871 -7.45128 -9.42379 6.61491 -6.20466 -9.32224 7.4782 -7.02189 
-9.22089 8.3221 -7.41018 -10.3428 7.24455 -6.04603 -10.0136 6.40159 -7.0824 
-10.4887 7.27884 -6.69404 -10.9024 6.91534 -6.72216 -7.89493 9.71132 -7.8534 
-7.8885 9.51813 -7.84879 -7.73043 9.28584 -8.33075 -10.6716 7.89855 -7.17684 
-9.47914 9.51322 -6.84147 -7.675 9.71077 -8.82766 -7.23965 9.92832 -10.3561 
-7.27375 9.93251 -10.6729 -8.77818 8.79733 -8.41813 -9.17285 8.45841 -8.28912 
-8.87913 8.40043 -8.30934 -10.0903 6.28933 -7.00484 -8.92682 8.72018 -8.38606 
-8.4507 8.87356 -8.41712 -10.8153 6.41338 -6.53192 -10.4103 6.60063 -6.21101 
-9.09886 8.54087 -8.30935 -8.53948 8.76103 -8.35786 -9.29344 8.76355 -7.78972 
-8.80617 9.28512 -7.99401 -8.20652 8.72755 -8.23601 -8.10528 8.72247 -8.28642 
-10.0345 6.71636 -6.95918 -8.62192 9.6282 -8.2402 -10.7231 7.44751 -6.78264 
-7.91967 9.32769 -7.93 -7.82897 8.99529 -7.99683 -10.34 8.06934 -7.27808 
-9.88258 8.08935 -7.27002 -10.0294 7.82322 -7.25713 -10.2958 8.30646 -7.20748 
-7.30367 9.72663 -9.90724 -9.84293 8.66688 -7.50378 -9.24539 9.16297 -7.28904 
-9.1515 6.7805 -6.37208 -8.94339 6.83854 -6.46909 -9.74683 6.53052 -6.04043 
-9.49147 8.22002 -8.20596 -8.28768 8.78088 -8.52265 -10.2665 6.04504 -6.78447 
-8.59653 8.86326 -8.41108 -7.95448 8.7647 -8.51695 -8.27299 8.98174 -8.28229 
-10.7232 6.62629 -6.24819 -8.12304 8.98172 -8.10511 -8.12934 8.74112 -8.23457 
-10.4487 7.04699 -6.69679 -8.52672 9.19465 -8.28172 -10.6947 6.77225 -6.77474 
-7.71316 9.21955 -7.98002 -10.9175 7.6842 -7.17564 -10.8189 7.73783 -7.18124 
-7.68102 9.34281 -8.60276 -7.66684 9.55472 -8.82162 -7.54402 9.6502 -8.90184 
-9.07816 9.50032 -7.09025 -7.65372 9.93625 -9.69602 -7.31944 9.5322 -9.36034 
-9.67385 8.58761 -7.5132 -7.19657 10.0369 -11.0941 -7.17359 9.97035 -10.9938 
-7.6174 9.90268 -10.3462 -9.75156 6.19079 -6.23983 -9.11807 6.99407 -6.49099 
-8.16791 8.26592 -8.4984 -9.34991 6.99902 -6.74323 -9.80993 8.25931 -8.07779 
-9.95016 6.52117 -6.0674 -9.50455 7.58093 -7.26792 -10.9671 6.52494 -6.43532 
-7.75008 8.56754 -8.3233 -7.93378 8.55481 -8.25468 -11.108 6.61572 -6.74712 
-10.7107 7.28148 -6.75375 -8.23733 9.38991 -8.20627 -10.7086 7.48362 -7.10589 
-8.62839 9.7607 -8.3253 -8.53876 9.60536 -8.555 -9.89804 8.40918 -7.4192 
-10.0779 8.5228 -7.45207 -7.77379 9.73229 -9.1177 -8.88034 9.2823 -7.3887 
-8.73709 9.0232 -7.78199 -9.18192 8.82691 -7.56739 -6.99814 10.0135 -10.5751 
-8.72404 7.93092 -8.21511 -9.34957 8.05355 -8.10952 -10.0027 5.79438 -6.248 
-10.0119 5.99964 -6.21169 -9.39213 6.33113 -6.34183 -7.74552 8.54706 -8.67649 
-9.3514 8.16463 -7.71676 -9.68508 8.22861 -8.02575 -10.057 8.14027 -7.81519 
-8.75947 8.81708 -8.56242 -8.47969 9.16256 -8.46991 -10.4657 6.3406 -7.01071 
-8.0716 9.22527 -8.05622 -8.89156 8.84885 -8.0751 -10.8771 6.50874 -6.72057 
-7.8309 8.91067 -8.17448 -7.77742 8.59142 -8.31455 -7.62497 8.90892 -8.31089 
-7.51679 8.82469 -8.36558 -7.63466 9.08004 -8.46539 -10.7395 7.2766 -6.91833 
-10.4408 7.85131 -7.18701 -7.56963 9.14965 -8.49787 -10.4313 7.63834 -7.16607 
-9.48646 8.08985 -7.33004 -9.3295 8.40293 -7.44171 -8.10914 9.59934 -8.62823 
-8.76486 8.93242 -7.81692 -7.25832 9.90378 -11.0421 -7.56296 8.32434 -8.73603 
-9.35299 6.77533 -6.72018 -9.82932 8.14056 -8.05776 -7.19409 8.52311 -8.59297 
-7.49637 8.47164 -8.52899 -7.16265 8.49185 -8.52236 -9.77639 7.99383 -7.82974 
-9.5728 7.90783 -7.75273 -10.6796 6.23089 -6.36367 -7.96454 8.50839 -8.28091 
-9.12086 8.51766 -8.43298 -8.77058 8.93003 -8.60186 -7.90352 8.96995 -8.05945 
-8.63282 9.4081 -8.5414 -10.5232 7.12028 -6.83129 -8.74002 9.19197 -8.4314 
-10.5141 6.56004 -6.82559 -7.50976 9.14092 -8.72143 -9.33749 8.59042 -7.59202 
-8.49606 9.44839 -8.01724 -7.11777 9.72523 -10.0703 -8.46128 9.09577 -8.25025 
-8.22706 9.34419 -8.45871 -7.46111 9.84835 -10.0383 -6.92346 9.94951 -11.288 
-7.13704 10.0625 -11.6365 -7.39655 10.0962 -11.2837 -8.81147 7.84105 -8.15483 
-9.70906 5.85959 -6.29431 -9.34774 6.38642 -6.30906 -10.0377 5.63557 -6.28891 
-10.1528 8.15178 -7.85177 -10.2831 6.02353 -6.32458 -9.4633 7.11448 -7.12403 
-7.22844 8.46185 -8.4621 -7.92833 8.5355 -8.33657 -10.4226 6.12809 -7.20215 
-7.88379 8.52915 -8.28681 -7.7328 8.44097 -8.34423 -7.47459 8.94024 -8.60722 
-10.7746 6.21051 -6.89596 -7.50574 9.02916 -8.61933 -8.80226 8.17547 -7.57096 
-8.83324 7.9733 -7.4709 -9.69226 7.78433 -7.38286 -7.37824 9.31219 -8.86089 
-8.94742 8.6043 -7.80955 -8.13222 9.09512 -8.54708 -7.99508 9.43301 -8.72633 
-7.48539 10.0585 -10.7809 -7.50786 9.95929 -10.5879 -8.35208 7.87189 -8.37967 
-7.87224 8.09382 -8.59749 -8.98934 5.7995 -5.95467 -8.86041 6.05278 -6.193 
-9.07034 6.0417 -6.16869 -9.2352 6.44569 -6.56764 -9.2098 6.28181 -6.29511 
-9.35245 6.07564 -6.26668 -9.91396 7.93828 -8.04575 -10.0406 5.732 -6.25389 
-10.4733 5.75797 -6.43272 -9.44407 6.83597 -6.94468 -6.99479 8.38161 -8.4655 
-7.72398 8.40533 -8.38983 -10.8501 5.89609 -6.72906 -10.2185 5.85587 -7.34057 
-10.5388 5.52779 -6.59604 -7.93273 8.58585 -8.25657 -10.7676 6.3161 -6.88598 
-7.33636 8.47583 -8.48363 -10.7748 6.18293 -6.91941 -10.5936 7.0707 -6.8647 
-7.30556 8.70435 -8.57117 -10.3145 7.24369 -7.2044 -10.501 7.10578 -6.98907 
-7.46123 8.9174 -8.85738 -7.42944 8.94108 -8.73259 -9.29234 7.81682 -7.32476 
-7.34307 9.00579 -8.68843 -7.95351 8.27779 -8.32448 -8.19935 7.9287 -8.18195 
-8.48801 8.15714 -7.96668 -7.71139 9.26938 -8.98954 -7.4442 9.47899 -9.54085 
-7.22996 10.1246 -11.6367 -7.06568 10.1104 -11.8402 -6.86032 9.86975 -10.7151 
-8.41716 8.70467 -8.11172 -7.30675 10.0309 -10.6605 -9.963 7.91253 -7.9049 
-10.0142 7.98832 -7.82184 -10.2979 5.31639 -7.154 -10.5403 5.17488 -6.9665 
-9.63958 7.53255 -7.583 -9.65146 7.69238 -7.75991 -9.58561 8.14542 -7.97342 
-9.11492 8.50801 -8.26856 -7.27437 8.35179 -8.53006 -7.18566 8.74314 -8.70119 
-10.428 6.17587 -7.08246 -7.31372 8.92199 -8.61347 -8.35754 7.91439 -7.9327 
-7.21107 9.00338 -8.71657 -10.3011 7.50091 -7.16692 -9.68141 7.70698 -7.40351 
-8.74693 8.3316 -7.78338 -7.05351 9.45309 -9.40028 -6.90057 9.47412 -10.1289 
-7.02522 10.1897 -11.8234 -6.82313 10.2152 -11.6532 -7.15345 10.155 -11.1995 
-6.9996 10.0084 -12.0368 -8.86193 6.31198 -6.57692 -8.72514 6.16728 -6.46574 
-8.81437 5.71008 -5.91688 -8.85752 6.31261 -6.58553 -9.03762 5.62341 -5.85164 
-9.46065 5.56478 -6.14721 -8.4909 7.79995 -8.16096 -9.07623 6.36877 -6.84261 
-7.46609 7.66635 -8.60791 -7.19362 8.06749 -8.72893 -7.13301 8.41914 -8.61786 
-9.60977 7.76702 -7.87092 -6.81613 8.53775 -8.3515 -6.8818 8.48907 -8.55362 
-10.0951 5.81273 -7.04332 -10.3107 5.44471 -6.46268 -9.56641 7.03551 -7.29917 
-7.31522 8.46437 -8.53747 -7.01177 8.50885 -8.73593 -10.0929 6.85901 -7.00042 
-7.27139 8.79714 -8.80188 -9.7667 7.48506 -7.42345 -8.94181 7.78768 -7.71298 
-7.28223 9.59893 -10.0818 -7.18215 9.44395 -10.0463 -6.63666 9.63441 -10.906 
-7.71258 8.87114 -8.65383 -6.99708 9.82385 -11.2277 -7.06659 9.83887 -11.8355 
-7.12909 9.83154 -10.3933 -8.76633 5.72565 -6.01698 -8.91832 6.45079 -6.88046 
-7.97215 7.74674 -8.44861 -9.8285 5.43562 -6.32742 -8.05601 7.57575 -8.45586 
-9.24172 6.53941 -6.92596 -9.98849 5.10627 -6.42531 -6.77955 8.56991 -8.41131 
-6.92532 8.43545 -8.48311 -7.12349 8.54197 -8.5408 -9.49296 7.17365 -7.38907 
-10.4298 5.971 -7.13626 -10.5055 5.90395 -7.10343 -10.2791 6.9986 -7.04595 
-10.1049 7.11838 -7.13398 -7.08013 9.2074 -9.06338 -6.84829 9.80299 -11.2268 
-7.09531 9.61131 -10.3259 -8.86318 5.36032 -5.7445 -8.71508 7.7185 -7.97569 
-7.47642 7.3871 -8.58798 -7.19279 7.72885 -8.66326 -9.09462 7.84632 -7.91936 
-9.21539 6.79804 -7.02047 -6.95506 8.10365 -8.5873 -6.90022 7.64773 -8.59305 
-9.36672 6.95874 -7.23139 -9.74363 7.57008 -7.8783 -10.2869 4.62577 -6.69311 
-6.74035 8.3783 -8.52495 -10.4693 5.02857 -6.66986 -10.2356 4.91272 -7.46434 
-7.59014 8.36227 -8.43153 -10.4593 4.62606 -7.30658 -9.74755 7.77897 -7.86328 
-10.6407 4.98273 -7.03035 -6.82877 8.57655 -9.69886 -6.85343 8.55173 -10.0546 
-6.99327 8.91189 -9.93028 -10.0614 6.9503 -7.17192 -6.78863 8.86912 -10.4262 
-7.11159 8.49709 -8.83825 -7.01623 9.01064 -9.79822 -9.86514 6.29689 -7.19014 
-10.4408 5.93466 -7.06188 -6.7416 9.17768 -10.3021 -9.83338 7.21344 -7.39663 
-8.65183 7.77375 -7.74579 -7.69253 8.11695 -8.40747 -7.21094 9.37435 -9.50742 
-6.8074 10.2496 -12.1728 -6.66344 9.60889 -11.2941 -7.3611 9.13869 -9.04653 
-6.98353 10.0215 -12.1191 -8.65467 5.52675 -5.92266 -8.41954 4.74554 -5.23082 
-8.61914 4.47503 -5.16556 -8.62036 4.3835 -4.9255 -8.59987 4.96092 -5.41227 
-8.98085 4.38519 -5.09389 -8.66255 4.6042 -4.99449 -9.64788 4.32672 -5.32344 
-9.51822 4.3405 -5.11124 -9.09234 4.55056 -5.39784 -9.29426 5.19825 -5.82003 
-9.0353 6.3977 -6.58983 -8.43499 7.4901 -8.15906 -7.28401 7.45676 -8.52176 
-9.97191 4.64671 -6.5708 -6.97234 8.46241 -8.67317 -9.93367 7.54808 -7.86214 
-10.5964 4.48639 -7.06861 -6.9264 8.47089 -8.76055 -10.2605 5.78184 -7.39319 
-7.08234 8.47902 -8.81006 -6.82052 8.13392 -9.75157 -7.1195 8.93295 -9.5584 
-6.66483 8.4555 -10.6877 -9.77708 6.98814 -7.20786 -7.16336 8.71721 -8.80764 
-9.48444 7.12734 -7.36397 -7.85271 7.88512 -8.26048 -6.72707 9.31771 -10.0683 
-6.6731 9.41786 -10.7231 -8.62145 7.82565 -7.79968 -9.21722 7.44578 -7.61083 
-7.48649 8.2403 -8.4953 -8.35207 7.80651 -7.99906 -7.81995 7.86944 -8.18958 
-7.52411 8.53995 -8.66128 -7.1603 9.85995 -11.7061 -8.44085 5.17161 -5.64886 
-9.08847 4.42353 -4.92236 -8.25786 4.88586 -5.48149 -9.60255 5.11974 -6.14866 
-7.09314 7.39282 -8.40137 -9.31972 7.75422 -7.77427 -10.0827 4.43818 -6.74295 
-6.4987 8.30527 -8.77936 -6.90515 8.47999 -8.70404 -6.42657 8.56724 -8.97933 
-10.1662 5.26414 -7.52214 -9.79142 7.51959 -7.81591 -6.91033 8.42689 -8.82388 
-10.5181 4.54169 -7.16998 -6.86142 8.05852 -10.0796 -7.09929 8.71893 -9.09252 
-6.65916 8.77488 -11.3083 -6.68073 9.05217 -10.9182 -6.89394 9.14255 -9.50214 
-7.03066 8.29782 -8.72861 -7.76452 7.89371 -8.17565 -6.94752 9.79212 -11.8239 
-7.3327 9.85114 -12.0382 -6.78702 10.1676 -12.2714 -7.08569 9.23837 -9.23425 
-7.1926 9.03968 -8.9071 -6.83831 10.0905 -10.8871 -8.51015 5.7585 -6.00157 
-7.6994 7.03105 -8.63614 -8.08007 7.30773 -8.41262 -8.08934 7.20287 -8.31079 
-7.67587 7.27591 -8.65151 -7.43694 7.02501 -8.6785 -8.97583 5.0282 -5.57643 
-9.76369 4.32156 -5.56257 -9.61167 4.32857 -5.74252 -7.26055 7.36201 -8.53369 
-6.71549 7.73702 -8.64355 -10.2212 4.35711 -6.73638 -10.1395 4.42357 -6.56949 
-6.69396 8.27885 -8.59272 -6.88734 8.50621 -8.80941 -6.93974 8.51793 -8.85308 
-10.4376 4.40387 -6.83779 -6.66665 8.47399 -8.97105 -10.1448 5.34666 -7.58653 
-6.95609 8.44581 -8.83021 -10.3603 4.23993 -7.04028 -6.69889 8.21755 -9.46097 
-6.70066 8.15439 -10.7235 -7.13061 8.30588 -8.77021 -7.01691 8.28021 -9.03569 
-10.336 4.24597 -7.22352 -7.0032 8.46757 -9.31137 -9.38934 5.82773 -7.43444 
-9.14758 7.34339 -7.59037 -7.35146 7.92444 -8.46439 -7.40422 7.82479 -8.33543 
-7.86477 7.91114 -8.14087 -7.33674 8.03081 -8.31694 -7.01753 9.54587 -9.99276 
-6.99523 9.66666 -10.2947 -7.40291 10.1108 -12.1632 -6.8828 9.48861 -9.64244 
-6.95321 9.83214 -10.4626 -8.34155 5.3661 -5.88181 -7.57949 6.81558 -8.50101 
-7.44699 6.96438 -8.91849 -8.70821 6.39873 -6.69151 -8.66081 4.6947 -4.98087 
-7.28205 6.76539 -8.77401 -9.74505 4.06032 -5.28084 -9.36504 4.73451 -5.6595 
-9.05206 6.80194 -7.0769 -9.93035 4.15774 -5.37987 -9.92901 4.15912 -5.62609 
-7.36619 7.12753 -8.58478 -9.82588 4.74638 -5.96073 -6.65629 8.14808 -8.50545 
-6.76193 7.21227 -8.39828 -6.55414 7.43885 -8.55242 -10.1351 4.63421 -6.41481 
-9.03823 7.23403 -7.21392 -9.72367 7.41702 -7.78885 -9.47849 7.21096 -7.50463 
-6.24927 8.47056 -9.10731 -10.1761 4.31727 -6.66697 -10.1146 5.48315 -7.59808 
-9.99873 4.80535 -7.65795 -10.1597 4.49706 -7.60659 -10.0598 5.47084 -7.53288 
-10.1705 5.50444 -7.59515 -6.7213 8.4396 -9.51381 -9.58962 6.83152 -7.23245 
-6.5982 9.14315 -11.0081 -6.47634 9.40527 -11.2782 -6.58597 9.55554 -11.8067 
-6.79881 9.9162 -11.9959 -8.36495 7.50829 -7.81734 -7.10999 8.68759 -8.60833 
-7.11966 9.8823 -12.047 -7.32162 10.1062 -12.3155 -6.75196 10.429 -12.311 
-6.72286 9.17555 -8.97938 -6.98754 10.2466 -12.4264 -6.75962 9.33298 -9.28528 
-6.62703 10.2563 -11.487 -6.51468 10.2906 -11.1209 -7.27853 6.86293 -9.04396 
-8.20613 6.89119 -7.9817 -8.79992 6.82451 -7.00921 -9.50769 4.52919 -5.71109 
-8.8182 7.60604 -8.02938 -7.10492 7.03044 -8.3961 -9.76271 4.22397 -5.78748 
-9.76931 4.09435 -6.13619 -9.70455 4.03858 -6.09236 -9.6429 3.89007 -6.2996 
-9.04401 7.70906 -7.52731 -10.0707 4.39582 -6.48582 -10.1278 4.0895 -6.84395 
-6.96491 7.94093 -9.47121 -6.95558 8.32108 -8.92484 -10.0101 5.16093 -7.7002 
-6.63758 8.31806 -11.45 -9.12512 6.50047 -7.49051 -9.68291 5.67764 -7.3326 
-8.87969 6.91013 -7.5025 -6.58846 9.16387 -11.4278 -8.40938 7.27641 -7.70489 
-7.1702 7.53862 -8.25991 -7.00584 8.08952 -8.40489 -7.83291 7.72359 -8.12084 
-7.27626 10.3075 -12.4915 -7.16128 8.00893 -8.35189 -6.64415 10.3152 -11.9427 
-7.1798 6.44408 -8.44483 -7.73759 6.45143 -7.95531 -7.15014 6.64089 -8.90924 