# vtk DataFile Version 5.1
vtk output
ASCII
DATASET POLYDATA
POINTS 18360 float
-2.81669 9.1542 68.8556 -3.13917 6.76073 68.7749 -3.53102 6.63169 70.0374 
-2.60887 9.17826 69.0023 -3.21555 6.66682 68.9948 -3.4253 8.66355 69.5659 
-3.6652 6.68643 69.6611 -2.53607 9.85744 69.0843 -3.54791 6.62009 70.05 
-2.73977 10.4417 69.653 -3.23718 6.7547 70.3768 -2.59395 9.61999 69.2907 
-3.2941 6.33721 69.8953 -3.44721 9.06293 69.2266 -3.56874 6.87545 68.6288 
-2.57008 8.56919 69.0831 -3.82147 6.8061 68.6939 -2.97028 8.85596 69.5824 
-4.24248 6.59951 69.6327 -2.62799 9.68219 69.0114 -3.70742 6.42448 68.896 
-2.76068 9.74639 69.1891 -3.35099 7.29878 68.7073 -3.0113 8.97093 69.0131 
-3.67172 7.01205 69.3283 -2.79821 9.52267 68.7394 -4.62669 7.36788 69.9117 
-2.24705 8.4412 68.5271 -4.17457 7.08228 69.3895 -3.32782 8.58958 69.0914 
-3.5776 7.40591 69.1092 -3.62048 9.29897 68.138 -4.44946 7.67524 70.0206 
-3.61687 8.3666 69.0591 -4.19794 7.47751 69.9186 -2.85244 9.79793 68.7678 
-4.25415 6.93517 69.8734 -3.06224 9.85045 68.8664 -3.43489 7.97015 69.2355 
-2.29604 8.94682 69.5596 -3.60666 7.86827 69.3825 -2.2467 9.36091 68.3018 
-4.59379 6.2243 69.0386 -3.05481 9.50571 69.2555 -4.88191 7.39749 69.9443 
-3.61099 8.45671 68.9094 -4.62695 7.69632 69.2514 -2.85867 10.2771 68.6956 
-4.19679 7.65622 69.3962 -2.56744 8.66291 68.331 -3.31896 8.04858 69.8585 
-2.503 9.83434 68.6383 -5.44251 7.36716 68.3331 -3.9365 9.22377 69.026 
-5.13633 7.6679 68.7663 -2.69304 9.61547 69.6775 -3.80844 8.15904 69.2062 
-3.18333 9.83764 68.7864 -4.533 8.72336 68.8152 -2.50431 8.52953 68.4169 
-4.75213 8.60151 68.5021 -3.71245 9.41883 69.3251 -5.08937 7.84148 68.7478 
-2.99131 9.54966 68.603 -4.95537 7.24109 68.6641 -2.60532 9.2449 69.8522 
-4.58272 8.23512 69.0202 -3.10845 9.87433 68.5793 -4.59074 8.62876 69.4367 
-2.31434 9.27792 68.7454 -4.93358 9.5647 69.6385 -2.48117 9.8322 68.7977 
-5.70185 8.55852 69.353 -3.04859 10.3707 69.3134 -5.65041 8.79422 68.7889 
-2.85141 9.18666 69.0709 -4.8018 8.13138 68.8049 -2.49209 8.83422 68.5155 
-4.60657 9.0266 68.7811 -3.33445 8.83911 68.6072 -5.35003 8.97742 67.85 
-3.34986 8.8695 69.1516 -4.55208 9.65471 68.4431 -2.79767 9.9818 69.4663 
-5.61974 9.1238 69.5343 -3.00055 9.97005 69.3576 -4.93492 8.91539 69.0101 
-2.31915 9.72959 68.9949 -4.38967 9.06726 69.6272 -3.59098 9.08321 69.1601 
-5.18997 8.58208 69.0566 -3.63441 8.68977 68.6196 -5.19571 9.43569 69.5883 
-3.47329 10.3779 68.8297 -5.6424 9.91579 68.8517 -3.09016 9.02644 68.989 
-4.6653 9.03958 68.3837 -2.73412 9.19989 70.1344 -5.21721 9.42046 68.7304 
-2.45439 9.24078 68.6394 -3.96834 10.141 69.5153 -2.93869 9.43734 69.5666 
-5.65361 9.02818 69.2103 -2.8918 9.57915 69.8717 -5.44361 10.0348 69.007 
-2.85719 9.17063 69.7719 -5.50638 10.5662 68.6143 -3.10758 10.4269 69.1609 
-4.63271 11.2523 68.7372 -2.73163 9.40516 68.2364 -4.92981 9.9353 69.2771 
-2.95357 9.35702 69.8969 -4.95441 10.2861 69.0481 -3.39621 8.40027 68.7071 
-5.4223 10.5313 69.3395 -3.36661 9.21058 68.9604 -3.65771 10.5097 68.6702 
-2.84371 9.03531 69.934 -4.98952 10.0077 68.483 -1.90536 8.76002 69.3869 
-4.83844 10.296 68.6782 -2.33332 9.31201 68.8713 -5.23025 10.761 69.0188 
-2.65147 9.3173 68.9039 -4.95205 11.2886 67.8588 -3.60137 9.46622 68.9291 
-4.45657 11.2576 69.1621 -1.88087 9.54536 69.8306 -4.50648 11.0799 69.4617 
-2.89325 8.74154 69.3678 -3.66344 11.0582 69.1621 -2.26488 8.4847 69.5788 
-3.81756 11.6284 69.6662 -3.1948 9.51761 69.452 -4.63945 10.5471 69.8611 
-2.02869 9.50104 68.8032 -3.91211 11.4156 69.1695 -2.65841 8.85078 69.1398 
-4.57272 11.8732 68.9363 -2.59676 9.79687 68.4156 -4.41855 10.9089 68.1677 
-4.11132 9.23668 69.5083 -4.93523 12.0743 68.0572 -2.79508 8.93877 68.9204 
-5.28207 11.0369 68.7041 -2.60847 9.30017 69.6068 -3.58694 10.9082 68.3259 
-2.94514 7.8808 70.3435 -3.64371 11.2177 67.7907 -3.23666 9.59387 69.3584 
-3.83842 11.6214 68.899 -3.44897 8.60632 69.2941 -4.02076 11.8311 68.3941 
-2.36407 9.51397 69.5071 -2.46987 11.3131 68.3892 -3.46523 9.87783 68.2606 
-2.9871 11.7163 68.5216 -2.26773 9.95112 69.9965 -3.00257 11.2058 67.6411 
-1.26133 9.76891 69.7471 -2.5841 12.2944 69.3544 -2.72932 8.57613 68.8218 
-3.372 11.0127 69.0815 -3.79711 9.48192 68.9953 -3.05204 11.7712 69.1637 
-4.21974 9.46177 69.2429 -3.6222 11.9814 68.2512 -2.96898 9.84327 69.1074 
-3.29977 12.2129 68.3542 -2.42322 8.68797 68.8467 -2.86579 12.3426 69.2777 
-2.55936 8.82764 69.147 -3.09815 12.4418 69.1033 -4.10573 9.69844 69.4106 
-2.98398 11.4595 68.6488 -2.32816 9.48496 69.3339 -2.58157 11.9397 68.8618 
-3.29984 9.28993 69.4482 -2.47038 11.7763 68.6258 -2.157 9.38122 69.5964 
-2.84554 11.3447 68.0135 -3.50968 7.96761 69.686 -2.95913 12.1281 68.9826 
-2.35128 9.89453 69.1196 -2.18144 11.6159 68.3111 -2.51881 9.30228 69.8215 
-3.19201 11.7735 69.4474 -3.16493 8.5865 69.4208 -2.01087 12.0403 69.0968 
-2.64516 9.51678 70.6209 -2.32904 12.0954 68.817 -2.34671 9.24643 69.6927 
-2.04279 11.7506 68.7682 -3.27348 9.62684 69.6907 -1.814 11.2966 68.9273 
-3.18234 9.90355 68.6912 -2.43782 11.7393 68.879 -3.16647 9.73183 69.2398 
-1.60927 11.6763 68.8798 -2.22788 9.05476 68.7965 -2.30735 12.0956 68.8611 
-3.24526 8.64161 68.9406 -1.51613 11.5442 68.5059 -2.94118 11.0745 68.9524 
-2.35705 11.1188 67.8035 -2.55737 9.31645 69.142 -2.48649 11.5728 68.9272 
-2.76841 9.07636 69.4234 -1.99096 11.2923 68.7873 -2.32783 8.59595 68.7485 
-1.58879 11.1317 68.9371 -2.47835 9.17857 69.3363 -2.60578 11.1994 69.3292 
-3.21806 9.67798 68.9217 -1.32174 12.2253 68.7914 -2.2984 9.49916 69.007 
-1.59039 11.156 68.3588 -2.84834 8.76512 69.0135 -1.50036 10.8064 69.2377 
-2.92136 9.44866 69.2847 -1.25435 11.3748 69.0565 -2.09999 9.06771 68.8956 
-1.12413 11.9203 69.0965 -3.07746 9.38183 69.3107 -1.19426 11.129 68.6367 
-2.32219 9.02643 68.6163 -1.0436 11.2384 68.6956 -2.30642 10.057 68.9722 
-1.34216 11.0241 68.6445 -3.07351 8.5594 69.3644 -1.34043 10.6869 69.1216 
-2.75872 9.93937 69.0954 -1.26789 10.5084 69.3018 -3.27406 8.52101 70.0056 
-0.488934 10.8611 69.5231 -2.7418 8.3191 69.7261 -0.662243 11.4992 68.2809 
-2.9036 8.55888 69.432 -1.43692 10.8614 68.999 -3.32528 9.09336 68.663 
-1.67841 10.8233 68.698 -3.89059 9.8689 68.5675 -1.49165 11.3447 69.4776 
-2.46683 9.48452 69.6416 -1.29011 10.4597 69.2034 -2.56479 9.2311 69.5653 
-1.35548 9.8224 69.9214 -3.10533 8.88227 69.3976 -1.03343 10.4528 69.3541 
-3.6364 8.96149 69.7173 -1.27421 10.1976 68.9253 -3.36046 9.50551 68.7496 
-0.925485 10.5034 69.3716 -3.51724 9.20548 69.6897 -0.208596 10.5063 68.9495 
-2.40315 9.95539 69.0372 -0.829748 9.9287 69.7143 -2.6306 9.68734 69.6129 
-0.266422 9.90142 69.6315 -2.34708 9.52652 68.9685 -0.0538184 9.71464 68.8597 
-2.66065 8.87669 69.3232 -1.08781 8.44515 69.8313 -3.15414 9.52827 69.0732 
0.036885 9.64657 69.3993 -2.34986 8.45686 69.1007 -1.10619 9.22467 69.7302 
-2.70542 9.0029 68.9075 -1.36126 9.08375 68.3322 -3.98055 10.0261 69.6975 
-0.309341 9.56533 69.1764 -2.31091 8.73883 68.6711 -0.446929 10.5732 69.212 
-2.96435 9.43418 69.1109 0.045054 9.28418 69.3771 -2.78364 8.88078 70.7078 
-1.19123 9.39439 69.6488 -2.97512 9.6427 69.3339 -0.677183 8.98091 68.9728 
-3.44168 8.8911 69.2575 -0.585939 9.97656 68.7591 -3.56537 9.91452 68.5076 
-0.0349798 8.85204 69.1378 -3.99008 9.4217 69.2702 -0.746903 8.5144 69.8966 
-2.76944 9.73959 68.5663 -0.720877 8.9337 69.7037 -3.89952 9.7592 69.5091 
-0.472538 9.37237 69.2513 -3.19982 8.80054 69.2822 -0.891042 8.5991 69.2536 
-2.11366 8.64826 68.5865 -2.13803 7.81125 68.9684 -2.59636 9.23813 68.8003 
0.413721 8.86799 69.3677 -3.29283 8.63149 68.2136 -0.429238 8.05872 69.2444 
-3.59409 8.76355 69.4638 -1.27575 8.42433 69.4642 -3.18805 9.20232 69.1652 
-0.216824 7.78064 69.6454 -3.11011 9.06015 68.7516 -0.382891 7.84133 68.4616 
-2.71634 9.34431 69.577 -1.92655 8.10941 69.6447 -3.48392 9.68999 69.1266 
-1.85921 7.83239 69.1935 -2.25445 8.97262 70.2014 -1.45557 7.64542 70.0752 
-3.45194 9.70197 68.5458 -0.83234 7.76625 69.2999 -2.48095 9.09479 69.266 
-1.36245 7.7932 69.4119 -2.73472 9.5312 70.3985 -1.43898 7.51469 69.7322 
-2.75216 9.58033 68.3654 -1.11993 7.84591 68.8374 -3.63198 9.19987 69.3356 
-1.8612 7.08413 68.7423 -0.840805 9.33319 69.0095 -1.87506 7.91159 69.8779 
-3.83189 9.01995 69.3955 -1.90707 7.29941 68.596 -2.53914 9.2676 69.7692 
-1.66061 7.48527 68.8149 -2.67671 9.51886 68.4573 -1.9659 7.85936 69.4941 
-2.47605 9.23905 69.1115 -1.91959 7.46675 69.0887 -2.52777 9.08004 68.624 
-2.11217 7.4604 69.2934 -2.72761 10.1251 68.7292 -2.77554 7.53157 68.7942 
-3.03203 9.82657 68.4359 -1.73333 7.31527 69.0266 -2.02683 9.06576 69.5905 
-1.14889 7.0809 68.9405 -3.07579 8.65767 69.2324 -3.20627 6.85888 69.2261 
-3.28695 9.07941 69.5237 -3.79547 6.77314 69.4776 -2.96586 9.42157 69.4134 
-2.43565 7.21231 68.8246 -3.57813 9.37306 69.606 -1.9144 7.32249 69.1796 
-3.93948 8.42193 70.0815 -1.84029 8.2618 68.8945 -3.07644 9.36199 69.525 
-1.67728 6.91632 68.4958 -2.7404 9.56688 68.7591 -2.34008 7.42963 69.5624 
-3.82999 9.48794 68.9473 -2.52522 6.67984 69.4985 -3.63827 9.27086 68.8127 
-2.7452 6.67372 69.4019 -2.70291 8.97095 68.2917 -3.05731 7.92711 69.9905 
-2.82269 8.94482 69.9981 -3.62753 7.81797 69.9189 -2.32295 9.16104 70.0636 
-2.73782 4.08013 70.0039 -2.7367 3.87946 69.4989 -4.0582 3.99205 69.7849 
-4.49551 3.58713 68.8465 -3.9449 3.75568 68.2137 -3.50923 3.08873 69.284 
-4.0665 3.95792 69.542 -4.66253 4.05621 69.4713 -5.03915 4.17238 69.391 
-4.95802 4.05322 68.7462 -4.80423 3.85782 69.4949 -4.84685 5.17096 69.9604 
-5.16404 5.09692 69.4837 -4.64541 4.37471 68.9384 -5.72747 4.65371 69.1233 
-4.98229 4.75658 69.4665 -5.75315 4.60278 70.07 -5.37754 4.49207 69.0866 
-5.91428 5.51667 69.7506 -5.55102 5.19422 69.5483 -5.73289 5.72153 70.2092 
-6.44964 5.07982 69.6023 -5.63265 6.20475 68.8004 -5.96558 5.37052 68.9128 
-5.8566 6.32511 69.0143 -6.01331 6.16628 70.5315 -6.59096 5.89861 70.1515 
-6.47295 5.96457 69.1299 -6.17341 5.91782 68.9297 -7.01721 6.1497 68.3999 
-6.38777 6.29957 68.3272 -6.48587 7.45605 69.5741 -7.35604 7.01433 68.4501 
[...]
POINT_DATA 18360
VECTORS deformation float
4.13966 1.99177 0.0049722 3.7275 2.15941 0.0689572 4.03432 1.91615 -0.0629661 
4.41214 1.88059 0.0226029 4.21115 1.7753 0.0846943 4.36345 1.76848 -0.0383343 
4.34109 1.51048 0.0240999 4.60497 1.32311 -0.0180984 4.61272 1.20141 -0.035618 
5.12175 0.870425 -0.121479 5.30279 0.967094 -0.123864 5.79272 0.549871 0.142264 
5.71282 0.697696 0.134307 5.96125 0.113506 0.340898 5.96953 0.452686 0.513119 
6.08525 0.0568876 0.445819 6.11147 0.00613708 0.485413 6.18064 -0.221865 0.319183 
6.18187 -0.105215 0.357206 6.37489 -0.328576 0.416094 6.2505 -0.378975 0.418297 
6.35504 -0.55729 0.43571 6.19969 -0.674722 0.485895 6.09611 -0.881184 0.551711 
6.17051 -0.91695 0.40308 5.98618 -1.23651 0.646016 6.29439 -1.14038 0.392735 
6.32723 -1.37833 0.72129 6.41941 -1.14994 0.433714 6.38959 -1.3102 0.604842 
6.5178 -1.28781 0.37195 6.48215 -1.4994 0.74588 6.72125 -1.61729 0.187486 
6.571 -1.95691 0.386044 6.80942 -1.95851 0.135967 6.87555 -2.30356 0.319143 
7.01143 -2.35439 0.107697 7.20954 -2.76687 0.300917 7.41412 -2.82988 0.266176 
7.42546 -3.1475 0.214112 7.64441 -3.08051 0.306094 7.75767 -3.41422 0.494668 
7.7568 -3.68237 0.522976 7.76214 -4.05547 0.420171 7.70753 -4.1375 0.391862 
7.67526 -4.55127 0.493908 7.64185 -4.46986 0.469884 7.56502 -4.59108 0.661283 
7.49277 -4.64298 0.625678 7.32975 -4.49986 0.86817 7.38126 -5.00288 0.577878 
7.21429 -5.13161 0.893939 7.25323 -5.50394 0.988481 7.16034 -5.82743 0.941463 
7.16046 -5.94285 0.964191 6.90104 -6.45863 0.76265 7.1871 -6.25996 0.929113 
7.1171 -6.74463 0.934864 7.11953 -6.56256 1.10074 7.00258 -6.72635 1.18741 
7.15073 -6.74843 1.17684 7.1253 -6.77483 1.01883 7.26121 -6.80039 1.08736 
7.11212 -7.02358 1.08014 7.29317 -6.82464 1.03397 7.18814 -7.12886 0.783994 
7.30316 -7.0651 0.921843 7.1868 -7.30843 1.00434 7.33208 -7.32218 0.818315 
7.14808 -7.54772 0.937865 7.32598 -7.60313 0.783371 7.18439 -7.75184 0.922724 
7.37939 -7.70115 0.870916 7.37039 -7.96311 0.828161 7.4966 -7.92638 1.00602 
7.4718 -8.03891 1.00185 7.60343 -8.02062 1.14304 7.53019 -8.07066 1.24018 
7.70418 -8.11481 1.26882 7.69025 -8.16445 1.28129 7.74008 -8.22124 1.38594 
7.69283 -8.26602 1.05401 7.73877 -8.48247 1.16697 7.59463 -8.5568 0.848399 
7.76748 -8.70608 0.884868 7.5995 -8.74035 0.805297 7.6995 -8.95338 0.93087 
7.54567 -9.03057 0.868631 7.69663 -9.1922 0.846203 7.70682 -9.26007 0.856272 
7.87367 -9.25217 0.948256 7.91321 -9.40938 0.979933 7.9077 -9.45286 0.884343 
7.84016 -9.53853 1.01843 7.87755 -9.71966 1.06868 7.74552 -9.9217 0.986925 
7.79518 -9.93326 1.23597 7.59913 -10.2509 0.755681 7.75089 -10.3149 1.18706 
7.52051 -10.5412 1.02872 7.70824 -10.6481 1.03785 7.61838 -10.7565 0.811254 
7.83554 -10.8019 0.994976 7.68134 -10.9387 0.673121 7.81635 -11.0279 1.02166 
7.68086 -11.0127 0.757359 7.76324 -11.1876 1.18839 7.67083 -11.2631 0.992669 
7.5718 -11.3476 1.31519 7.43787 -11.345 1.27678 7.43306 -11.4537 1.20608 
7.22547 -11.6696 0.920823 7.16755 -11.7645 1.14247 6.91554 -11.9902 1.09625 
7.02029 -11.9763 1.11868 6.73022 -12.0672 1.06563 6.86303 -12.0927 1.22655 
6.54139 -12.1774 0.884382 6.80104 -12.1967 1.25445 6.65753 -12.2771 1.03705 
6.72659 -12.3314 1.28508 6.6302 -12.3096 1.23501 6.6682 -12.5216 1.35959 
6.37927 -12.6349 1.31622 6.56539 -12.7336 1.59849 6.38987 -12.7718 1.26769 
6.51246 -12.7421 1.3031 6.5506 -12.5319 0.887447 6.42346 -12.684 1.12114 
6.15217 -12.6444 0.911 6.19502 -12.9414 1.10174 5.89621 -12.9715 0.830739 
6.18858 -13.1331 0.95504 6.07827 -13.1909 0.829713 6.20727 -13.4706 0.925466 
6.03137 -13.497 0.937588 6.11696 -13.6719 1.14439 6.00314 -13.6676 0.953601 
6.10584 -13.7782 1.21855 6.03938 -13.7621 1.23351 6.06536 -13.9185 1.49889 
6.0592 -13.6916 1.21642 5.82105 -13.9355 1.54368 5.79438 -13.99 1.30462 
5.7479 -14.2323 1.47096 5.66208 -14.1698 1.204 5.57097 -14.3495 1.61029 
5.59515 -14.2688 1.42932 5.50099 -14.4701 1.76552 5.66179 -14.1779 1.33664 
5.53733 -14.6354 1.47625 5.66052 -14.4827 1.14231 5.40917 -14.9323 1.47666 
5.35563 -14.8556 1.08505 5.20071 -15.1226 1.46685 5.16438 -15.1159 1.1937 
4.95225 -15.2982 1.47885 4.86376 -15.2563 0.869758 4.56604 -15.4529 1.52645 
4.36709 -15.2957 0.785892 4.2442 -15.7453 1.17097 3.96522 -15.354 0.966779 
3.71801 -15.967 1.02906 3.65215 -15.5653 0.889598 3.60648 -16.0076 1.03618 
3.57434 -15.7134 0.82637 3.37752 -16.0833 1.24893 3.3628 -16.0214 0.871381 
3.14736 -16.2032 1.20633 3.08985 -16.0573 0.816594 2.91946 -16.1609 0.942741 
2.67116 -15.6714 0.747402 2.48371 -16.1465 0.970788 2.37845 -15.8211 0.755806 
2.29038 -16.1271 1.10287 2.19799 -15.9203 0.767479 2.04036 -16.0749 1.17511 
1.88928 -15.7943 0.860932 1.88028 -16.0788 1.30701 1.87275 -15.9101 0.770656 
1.91788 -16.2374 1.3566 1.89463 -16.3237 0.724773 1.8372 -16.2355 1.16302 
1.76368 -16.0504 0.783811 1.68329 -16.1327 1.15332 1.69917 -15.7552 0.588668 
1.51512 -16.0426 0.964007 1.50511 -16.0801 0.542647 1.23368 -16.0598 0.966232 
1.07458 -15.8352 0.454784 1.09231 -15.8797 1.06019 0.874688 -15.5762 0.671423 
0.939455 -15.7379 1.09597 0.89158 -15.5235 0.693529 0.787392 -15.6523 1.03399 
0.738788 -15.4315 0.933148 0.599663 -15.5223 1.10226 0.449304 -15.3557 0.850631 
0.382029 -15.3507 1.12611 0.320795 -15.0071 0.96119 0.269033 -15.2408 1.14013 
0.34244 -14.8664 0.993259 0.13098 -15.1298 1.24561 0.130837 -14.921 1.05127 
-0.150383 -15.062 1.38839 -0.334395 -14.9216 0.91513 -0.401376 -15.0504 1.14981 
-0.471726 -14.9208 0.760627 -0.596003 -14.9663 1.07775 -0.68895 -14.7911 0.896098 
-0.735999 -14.889 1.01962 -0.614224 -14.7228 0.788461 -0.747251 -14.7849 0.98695 
-0.709343 -14.8068 0.871487 -0.769206 -14.833 1.12914 -0.69712 -14.7607 0.916008 
-0.892721 -14.6606 1.19509 -0.834873 -14.4641 0.939521 -1.04838 -14.3907 0.98271 
-1.04067 -14.2613 0.817548 -1.09427 -14.1322 1.12729 -0.886159 -14.0316 0.92041 
-0.956358 -13.8499 1.08949 -0.92003 -13.7178 0.844505 -0.838512 -13.5523 1.18096 
-0.704309 -13.137 1.12826 -0.804091 -13.1504 1.23876 -0.606365 -12.8359 1.11673 
-0.67584 -12.8492 1.12377 -0.459948 -12.4746 0.841942 -0.694453 -12.5731 0.95261 
-0.733602 -12.329 0.76541 -0.759945 -12.3504 0.882989 -0.545262 -11.9986 0.529362 
-0.854513 -12.1205 0.920549 -0.611735 -11.7461 0.729817 -0.87503 -11.9016 1.20358 
-0.814364 -11.6882 0.944115 -1.14018 -11.8198 1.13094 -0.983239 -11.6746 1.17187 
-1.30673 -11.7205 1.13365 -1.2318 -11.6398 1.01843 -1.43615 -11.6713 0.821724 
-1.44763 -11.4041 0.557372 -1.67172 -11.4054 0.693639 -1.64109 -11.1577 0.433684 
-1.82998 -11.0795 0.527252 -1.59786 -10.7031 0.552532 -1.87034 -10.8367 0.658505 
-1.64001 -10.5004 0.536823 -1.9011 -10.7362 0.715737 -1.82969 -10.582 0.73571 
-2.03615 -10.5529 0.610193 -1.84233 -10.3331 0.475059 -2.18661 -10.3444 0.622559 
-2.15551 -10.1429 0.485239 -2.3171 -10.1271 0.459734 -2.25159 -9.90541 0.420977 
-2.47502 -9.78462 0.579859 -2.36463 -9.62191 0.639787 -2.55928 -9.53321 0.747721 
-2.4701 -9.23408 0.597601 -2.67531 -9.21862 0.618633 -2.64669 -8.86628 0.722278 
-2.93111 -8.90568 0.694861 -3.04652 -8.5972 0.711246 -3.39541 -8.58275 0.650151 
-3.2255 -8.2408 0.798825 -3.62211 -8.15842 0.872545 -3.55839 -8.0383 0.574207 
-3.89828 -7.87189 0.679348 -3.68273 -7.7135 0.772283 -4.05777 -7.61557 0.6806 
-4.15669 -7.4677 0.497782 -4.34159 -7.26663 0.48376 -4.42899 -7.21976 0.0571083 
-4.34656 -7.03869 0.388285 -4.36815 -6.74262 0.333113 -4.48029 -6.68937 0.53263 
-4.52055 -6.42642 0.473729 -4.83046 -6.34728 0.543919 -4.82979 -6.04907 0.623186 
-4.90168 -5.99917 0.516502 -4.88807 -5.84445 0.384143 -5.05295 -5.80129 0.245838 
-4.87876 -5.90712 0.300614 -5.14926 -5.60109 0.22823 -5.03804 -5.405 0.212347 
-5.19704 -5.17369 0.352325 -5.21303 -4.98879 0.357623 -5.20946 -4.73883 0.414953 
-5.08171 -4.64324 0.60732 -5.11431 -4.22354 0.488742 -5.20614 -3.92633 0.628788 
-5.1379 -3.70258 0.413978 -5.01796 -3.50254 0.715871 -4.91665 -3.32816 0.426492 
-4.69312 -3.11746 0.530936 -4.62641 -3.14122 0.301914 -4.32207 -2.88849 0.410497 
-4.52228 -2.54119 0.245163 -4.15534 -2.45895 0.552245 -4.40104 -2.1222 0.4201 
-4.10573 -1.976 0.288705 -4.25383 -1.63117 0.256826 -3.82101 -1.5929 0.214544 
-3.85098 -1.34383 0.258092 -3.48839 -1.42385 0.0190517 -3.62662 -1.22844 0.130171 
-3.71419 -0.975792 0.258768 -3.90934 -0.89929 0.164335 -4.03266 -0.845659 0.112213 
-3.91386 -0.695354 0.121692 -3.99523 -0.760017 -0.0728316 -3.87597 -0.571391 0.181879 
-3.87877 -0.576938 0.289074 -3.61445 -0.268845 0.216624 -3.48622 -0.352597 0.208417 
-3.34666 -0.0215056 0.245036 -3.26699 -0.0188821 0.0890046 -3.08572 0.254514 0.0283367 
-2.95064 0.190469 0.0432739 -2.67227 0.596338 0.264498 -2.47836 0.543064 0.0430917 
-2.46021 0.824795 0.189436 -2.18544 0.931365 0.236246 -2.06911 1.26734 -0.0540968 
-1.69949 1.26972 -0.050899 -1.59484 1.77377 -0.0368749 -1.17066 1.69813 0.0300596 
-1.05476 2.2161 -0.0638445 -0.50326 2.1749 -0.0427336 -0.488921 2.53039 -0.0125057 
0.128315 2.45096 0.0402292 -0.00151678 2.76827 -0.113984 0.186053 2.78492 -0.341584 
0.272896 2.8802 -0.125627 0.477969 2.95899 -0.440978 0.448408 3.0549 -0.236749 
0.69511 2.95124 -0.522785 0.569055 3.03608 -0.170256 0.971604 2.82288 -0.336376 
0.929455 3.01025 -0.111567 1.22441 2.91726 -0.519309 1.21846 3.01261 -0.145214 
1.56529 3.04869 -0.471536 1.32919 2.86391 -0.0908746 1.4892 2.76435 -0.283293 
1.61068 2.88321 0.0515349 1.64305 2.84311 -0.111435 1.89533 2.92376 -0.0584358 
2.00775 2.8124 -0.17074 2.23068 2.9037 -0.074627 2.41435 2.76421 -0.0279404 
2.70019 2.81434 -0.0579098 3.29073 2.57517 0.133666 3.19576 2.7294 -0.155394 
3.44874 2.28781 -0.19904 3.38214 2.36291 -0.263303 3.77164 2.05508 -0.32942 
3.85369 2.57108 -0.0306487 4.06619 2.26636 0.154605 4.20869 2.04577 0.17475 
4.36707 1.9028 0.241318 4.64349 1.49039 0.358512 4.92413 1.36059 0.126156 
5.34055 1.07759 0.154111 5.67548 0.740692 0.284643 5.9003 0.458516 0.39712 
5.98167 0.201491 0.386675 6.05509 0.0346652 0.244491 6.13267 -0.288045 0.288665 
6.20422 -0.57283 0.369981 6.25495 -0.678454 0.360497 6.47244 -0.893023 0.331183 
6.48468 -0.970097 0.272934 6.72632 -1.1952 0.192679 6.87923 -1.55746 0.336484 
7.05211 -1.9018 0.154211 7.2431 -2.47591 0.305957 7.45936 -2.97405 0.263398 
7.5842 -3.36054 0.439788 7.69957 -3.70986 0.636958 7.7418 -4.0651 0.671272 
7.7306 -4.45646 0.665759 7.57944 -4.72529 0.419807 7.44854 -4.99978 0.604778 
7.32905 -5.29524 0.879803 7.22718 -5.55656 0.973777 7.32174 -5.86366 1.15395 
7.31519 -6.13099 1.24444 7.46652 -6.43805 1.04363 7.59799 -6.54315 1.11278 
7.56335 -6.6492 0.932812 7.69982 -6.94766 0.834328 7.64038 -7.05671 0.823605 
7.63398 -7.22486 0.982616 7.75175 -7.63195 0.894805 7.85951 -7.86211 1.1232 
7.90328 -7.95862 1.10007 7.93591 -8.22432 1.31098 7.98547 -8.32847 1.10476 
8.09676 -8.65742 1.11271 7.92687 -8.92817 1.00658 7.90823 -9.06425 1.03667 
8.01107 -9.26503 1.16024 8.02044 -9.3907 0.96122 8.02774 -9.68088 1.02388 
7.97105 -9.8514 1.18075 8.02406 -10.1298 1.44606 8.05974 -10.5576 1.47676 
8.04997 -10.9509 1.53961 8.10788 -11.0792 1.31038 7.93753 -11.2247 1.23546 
7.86696 -11.3652 1.48048 7.64048 -11.5002 1.71914 7.53256 -11.8047 1.57945 
7.30788 -11.9262 1.43462 7.2014 -12.1399 1.44142 7.09996 -12.297 1.43491 
6.96518 -12.5243 1.41635 6.79662 -12.6352 1.4765 6.76903 -12.8193 1.71982 
6.66889 -12.9755 1.89783 6.56501 -13.0678 1.8801 6.53353 -13.0917 1.64528 
6.44812 -13.3233 1.63453 6.23036 -13.5205 1.38403 6.15992 -13.7228 1.49098 
6.20339 -13.8667 1.59367 6.12974 -14.0736 1.49803 6.09233 -14.2332 1.68742 
5.84046 -14.294 1.9013 5.55463 -14.4702 1.67715 5.37544 -14.6284 1.8712 
5.34535 -14.7496 2.01663 5.29565 -14.9656 1.76322 5.19445 -15.2453 1.66867 
5.07278 -15.6309 1.75693 4.73017 -15.7932 1.84929 4.4158 -15.9754 1.79454 
4.03641 -16.189 1.42401 3.7375 -16.3145 1.38002 3.58666 -16.3679 1.40951 
3.29886 -16.4923 1.49343 3.07225 -16.4918 1.38251 2.7354 -16.6515 1.34246 
2.59597 -16.7162 1.51995 2.31594 -16.5565 1.47075 2.1006 -16.4693 1.70335 
2.0142 -16.5398 1.91565 1.94353 -16.6322 1.72123 1.88607 -16.5647 1.53451 
1.60611 -16.4858 1.68209 1.35329 -16.4063 1.55752 1.2876 -16.3061 1.61515 
1.15532 -16.1932 1.55895 0.89195 -16.1226 1.44622 0.638893 -15.9838 1.27854 
0.402531 -15.797 1.3999 0.234871 -15.504 1.43128 0.0926425 -15.3847 1.44529 
-0.11847 -15.3942 1.49911 -0.38935 -15.2795 1.73514 -0.579615 -15.2213 1.3739 
-0.772584 -15.22 1.255 -0.973149 -15.1286 1.23236 -0.929329 -15.0869 1.34502 
-0.963334 -14.964 1.38549 -1.08593 -14.7358 1.25156 -1.22292 -14.4307 1.31783 
-1.18707 -14.2966 1.52035 -1.11901 -13.9715 1.33341 -1.19669 -13.6707 1.35568 
-1.10869 -13.3451 1.37908 -1.07842 -13.1309 1.19216 -1.14006 -12.905 1.17432 
-1.27962 -12.6873 1.36195 -1.48014 -12.3021 1.32807 -1.43882 -12.1316 1.32258 
-1.56903 -11.9314 1.10246 -1.7412 -11.9367 1.1829 -1.95747 -11.7161 1.15459 
-2.19771 -11.474 0.944169 -2.21972 -11.0958 0.877465 -2.27155 -10.9968 0.6807 
-2.40201 -10.7761 0.54602 -2.63829 -10.6188 0.606108 -2.6906 -10.2919 0.529089 
-2.88326 -9.9973 0.776108 -3.03079 -9.68688 0.861864 -3.08868 -9.45769 0.840754 
-3.25383 -9.17138 0.731483 -3.50609 -8.82998 0.878872 -3.74713 -8.44728 0.945464 
-3.88495 -8.04996 0.708023 -4.0957 -7.74976 0.815919 -4.19432 -7.42707 0.682039 
-4.41645 -7.12794 0.802442 -4.55472 -6.87938 0.699054 -4.66038 -6.47573 0.536639 
-4.97313 -6.0212 0.457483 -5.22378 -5.70247 0.474567 -5.35465 -5.43993 0.429624 
-5.30722 -5.16631 0.503024 -5.31983 -4.78479 0.489826 -5.28488 -4.34801 0.435957 
-5.28209 -3.94521 0.276816 -5.27228 -3.32484 0.367747 -5.09754 -2.96775 0.466854 
-4.8714 -2.58788 0.317381 -4.7404 -2.0473 0.0433274 -4.59587 -1.57584 0.199126 
-4.39869 -1.31738 0.269499 -4.11683 -1.06556 0.27437 -4.01775 -0.850626 0.12523 
-4.06403 -0.495739 0.0946929 -3.94121 -0.294311 0.00957097 -3.82273 -0.140175 0.0712644 
-3.80516 0.15139 0.035155 -3.40708 0.401468 0.0920511 -3.08606 0.673976 0.143445 
-2.64502 0.824713 0.0216262 -2.41653 1.22005 0.0938886 -1.88644 1.69145 0.0824443 
-1.44986 2.23726 0.0822958 -0.984924 2.70438 0.0831581 -0.362305 2.98989 -0.119785 
0.00716577 3.03923 -0.121523 0.300155 3.17502 -0.104717 0.486089 3.27464 0.0493804 
0.526909 3.23155 0.0761243 1.04861 3.36793 0.0283033 1.29783 3.29268 0.0108403 
1.60179 3.04763 -0.022138 1.8083 3.0674 0.148209 2.19487 3.27805 0.157666 
2.57366 3.21892 0.0407548 2.95754 3.13027 -0.00805856 3.2656 3.04609 -0.0453739 
3.58156 3.26993 0.0747222 3.93305 3.00563 -0.0107188 4.16735 2.64943 0.206971 
4.43689 2.51441 0.145881 4.6968 2.20316 0.216693 5.04448 2.03576 0.110203 
5.22623 1.77944 0.169314 5.48106 1.24751 0.0623482 5.68182 0.91068 0.342275 
5.96944 0.65663 0.307525 6.02954 0.447941 0.169132 6.18883 0.128893 0.382824 
6.2777 -0.189101 0.214142 6.47222 -0.383676 0.223906 6.59476 -0.553816 0.177427 
6.78728 -0.670924 0.366945 6.8695 -0.852828 0.551134 7.05757 -1.14871 0.394169 
7.159 -1.54501 0.427667 7.35646 -2.00179 0.436355 7.47729 -2.42604 0.528015 
7.77476 -2.79591 0.427843 7.7946 -2.94667 0.566052 7.90182 -3.36044 0.542347 
8.07897 -3.75374 0.652289 7.97083 -4.15855 0.669782 7.88348 -4.39212 0.718948 
7.92247 -4.58115 0.926337 7.90236 -4.75998 1.07444 7.62864 -5.02809 0.991058 
7.82732 -5.5529 1.14263 7.94769 -5.78659 1.20267 8.08332 -6.08393 1.16491 
8.08063 -6.18105 1.06997 8.24829 -6.39462 1.01486 8.31056 -6.66811 0.854835 
8.35457 -6.90722 0.725429 8.40016 -7.10151 0.945024 8.43637 -7.48436 1.17306 
8.52979 -7.74094 1.26769 8.50465 -7.98001 1.32116 8.60588 -8.11337 1.31302 
8.62296 -8.4462 1.36531 8.65673 -8.83881 1.16147 8.60116 -9.02803 1.32028 
8.6341 -9.4057 1.50985 8.62983 -9.53232 1.3171 8.69462 -9.72101 1.26447 
8.58798 -9.86273 1.4651 8.69574 -10.3245 1.47403 8.69493 -10.6381 1.58725 
8.74251 -10.9514 1.618 8.64291 -11.2802 1.69385 8.57434 -11.4647 1.67434 
8.47616 -11.5353 1.7125 8.37236 -11.7751 1.89979 8.01324 -12.0494 1.725 
7.77005 -12.4078 1.76817 7.57583 -12.4327 1.94912 7.62412 -12.5958 1.8903 
7.40137 -12.815 2.06787 7.31398 -13.0993 2.08896 7.2016 -13.1046 1.9564 
7.05205 -13.4697 2.15384 7.02088 -13.6953 2.23823 6.90366 -13.7719 2.24074 
6.90311 -13.8617 2.24663 6.75319 -14.0399 2.13073 6.4822 -14.4099 2.11144 
6.4957 -14.5022 2.06334 6.3979 -14.805 1.87483 6.30713 -14.9485 1.93221 
6.10265 -14.9437 2.22057 5.73512 -15.1702 2.13048 5.60248 -15.27 2.21529 
5.43283 -15.426 2.28463 5.32573 -15.5186 2.21927 5.32135 -15.8566 2.11199 
5.25667 -16.238 2.06313 4.95818 -16.4432 2.17201 4.56394 -16.6164 2.1479 
4.37659 -16.7731 2.00107 4.14803 -16.8604 2.01883 3.79439 -17.0013 1.96952 
3.69901 -17.0828 1.82122 3.28947 -16.9563 1.91597 3.22981 -17.1867 1.92387 
2.89649 -17.2813 1.94968 2.67539 -17.3372 1.87251 2.33273 -17.0586 2.16651 
2.10563 -17.1405 2.29361 1.89857 -17.1924 2.24162 1.90331 -17.2133 2.26233 
1.71316 -17.0185 2.08913 1.47209 -17.0077 2.08846 1.34209 -16.9288 2.03942 
1.28757 -16.9814 2.06546 0.889853 -16.8682 1.91705 0.513647 -16.6699 1.981 
0.339187 -16.5942 1.72972 0.156864 -16.2519 1.71099 0.0839173 -15.9234 1.79708 
-0.234048 -15.8273 1.94235 -0.531576 -15.6892 2.15631 -0.765657 -15.7569 2.14438 
-1.14177 -15.7079 1.85511 -1.25998 -15.7699 1.61642 -1.27894 -15.5812 1.49264 
-1.23351 -15.5288 1.5782 -1.47651 -15.3608 1.58292 -1.42864 -15.0105 1.69524 
-1.56058 -14.8446 1.76283 -1.60754 -14.6899 1.47971 -1.76143 -14.3058 1.44874 
-1.89592 -14.0071 1.45846 -1.94242 -13.7334 1.36388 -1.82716 -13.6647 1.2902 
-1.96602 -13.2891 1.41889 -2.10129 -13.1586 1.56851 -2.24357 -12.8146 1.3907 
-2.26877 -12.524 1.30822 -2.37061 -12.3158 1.24802 -2.56459 -12.2121 1.51407 
-2.81 -11.8845 1.40321 -2.94169 -11.4162 1.24292 -3.06874 -11.3084 0.897617 
-3.13901 -11.1981 1.01881 -3.38124 -10.9428 0.77042 -3.44045 -10.7301 0.78664 
-3.58204 -10.2511 0.930583 -3.67343 -9.77387 0.995964 -3.88139 -9.60323 1.12064 
-3.87302 -9.29363 0.986463 -3.92781 -9.11497 0.900314 -4.13323 -8.69628 1.05569 
-4.34096 -8.33895 1.11364 -4.47372 -7.89266 0.822087 -4.65947 -7.44091 0.737522 
-4.73072 -7.14083 1.01828 -4.87128 -6.9334 1.02657 -5.01541 -6.53405 0.824413 
-5.2019 -6.13 0.695873 -5.32136 -5.75582 0.802536 -5.41095 -5.42835 0.834392 
-5.50151 -5.06148 0.735368 -5.52924 -4.6938 0.645818 -5.55227 -4.21291 0.517446 
-5.50084 -3.92057 0.535283 -5.61335 -3.44282 0.461291 -5.47897 -2.84873 0.474312 
-5.3685 -2.43974 0.538197 -5.16275 -2.02816 0.13877 -4.9417 -1.57758 0.162941 
-4.72165 -1.25344 0.199164 -4.49342 -0.919967 0.342905 -4.34291 -0.532539 0.268935 
-4.26575 -0.266437 -0.0260801 -4.14984 0.0731086 0.222363 -4.01569 0.335234 0.183407 
-3.99614 0.473532 -0.0117188 -3.77524 0.809161 -0.0688816 -3.42973 1.14493 0.256011 
-3.09935 1.34766 0.226611 -2.7824 1.57498 0.0538467 -2.32368 1.92801 -0.0912306 
-1.86453 2.40086 -0.0670453 -1.38863 2.8973 0.0779554 -0.972123 3.07447 -0.217264 
-0.399433 3.30408 -0.04198 0.0181662 3.45434 -0.0844731 0.3261 3.61289 0.086522 
0.402401 3.7971 0.127329 0.836405 3.80557 0.264457 1.2598 3.7242 -0.00691029 
1.62355 3.64428 0.00375209 1.77901 3.52147 0.0533408 2.13773 3.56675 0.218354 
2.53428 3.63255 0.135862 2.92224 3.55688 0.103125 3.2193 3.37934 0.164165 
3.46302 3.76391 0.171026 3.75394 3.6095 0.307646 4.06291 3.34618 0.19777 
4.37111 3.13079 0.276014 4.59901 2.9276 0.215757 4.95368 2.73765 0.202939 
5.2421 2.44768 0.057295 5.50186 2.14181 0.212163 5.5965 1.65009 0.339053 
5.89062 1.432 0.243426 6.19231 1.17828 0.341193 6.28197 0.93402 0.485461 
6.51822 0.687634 0.441343 6.63138 0.431971 0.257449 6.74727 0.289558 0.307011 
7.00744 0.0850225 0.467857 7.10149 0.043809 0.425604 7.27168 -0.339099 0.754478 
7.40666 -0.727422 0.564994 7.61695 -1.13051 0.499295 7.65392 -1.62866 0.683159 
7.81744 -1.87893 0.620314 8.12183 -2.26692 0.646639 8.24263 -2.46851 0.797186 
8.16841 -2.80051 1.02681 8.25902 -3.12671 0.940049 8.32682 -3.49606 0.836135 
8.21968 -3.76682 1.06971 8.21573 -4.0535 0.933432 8.13504 -4.38642 1.07534 
8.12139 -4.77577 1.03431 8.18341 -5.24163 0.96408 8.29917 -5.52073 1.15933 
8.33204 -5.71305 1.29696 8.43472 -6.02322 1.08196 8.5768 -6.31307 1.13125 
8.59461 -6.56015 1.05597 8.55769 -6.75698 1.1018 8.666 -7.03589 1.23052 
8.74107 -7.38232 1.29189 8.76808 -7.67801 1.36977 8.74784 -7.94929 1.47376 