# vtk DataFile Version 5.1
vtk output
ASCII
DATASET POLYDATA
POINTS 10006 float
23.3814 -91.9203 12.4145 21.1608 -93.4122 6.52334 23.6061 -90.5232 7.3664 
14.912 -95.1115 10.8541 21.3136 -92.0918 3.19143 12.3664 -95.7625 4.63611 
12.9681 -96.7885 1.75449 18.6553 -93.9531 -1.43291 26.715 -87.4839 12.6128 
19.2816 -90.009 17.8357 13.8302 -92.936 15.2977 25.0771 -84.6866 12.6307 
26.1227 -88.7428 8.63503 23.0785 -91.5941 1.39365 25.9041 -88.1856 3.02597 
21.9752 -91.6588 4.34777 20.4728 -88.9796 7.22021 11.5935 -94.6833 7.16195 
19.5969 -91.4521 -0.674094 21.6345 -89.1922 -3.12732 14.7061 -93.811 -6.84641 
25.004 -87.5978 10.6271 18.6245 -90.3428 0.381032 23.7996 -84.44 -2.35428 
6.68763 -94.419 3.96612 5.8327 -94.9657 0.662257 8.17525 -95.1401 -7.14596 
10.6259 -95.2331 -7.5424 8.57716 -90.6473 19.2722 17.9075 -86.4386 11.2714 
28.207 -84.3897 6.73709 30.9492 -81.7286 13.185 21.8676 -87.508 9.03457 
26.0909 -85.147 3.79654 18.7593 -89.1686 4.75166 22.9339 -84.9439 2.53185 
15.4164 -89.1522 2.57253 17.7549 -89.3981 7.40349 9.65373 -91.8647 5.78127 
10.0021 -95.9059 9.3044 7.0021 -94.9604 4.41942 6.01621 -92.9941 -3.12392 
9.3109 -92.0687 -6.41904 22.9482 -87.664 20.1882 18.8623 -83.732 24.207 
14.7078 -86.3222 24.1393 26.9124 -82.7058 15.8231 28.1356 -81.8239 21.3453 
16.2616 -89.2973 18.9113 9.96382 -87.8792 21.1352 14.9784 -86.1272 6.91781 
7.05146 -92.0522 14.3526 17.9825 -87.9597 9.82042 1.96236 -95.7982 3.33713 
5.55169 -95.831 9.26158 16.8221 -89.0337 -8.04584 12.1802 -88.7411 -6.99728 
10.287 -89.4652 -7.42842 19.9796 -81.4761 26.7861 31.7393 -79.7958 8.5895 
27.8191 -81.3028 12.8126 22.6065 -83.8833 10.1947 6.778 -90.0043 13.9393 
28.9859 -84.366 4.72646 4.15488 -93.268 14.3957 1.36949 -93.4126 11.6555 
-1.02958 -95.5351 7.62045 -3.58544 -94.5586 3.82361 -4.97168 -93.6316 7.65038 
4.29252 -90.0236 2.86761 22.2956 -85.5237 -4.61905 21.0849 -83.0994 -2.54389 
26.5604 -74.9095 28.7625 20.2702 -80.8939 16.283 14.3195 -83.5535 10.6242 
3.97387 -89.956 19.612 -3.43016 -91.3578 15.9476 25.9813 -81.8378 1.28473 
5.00335 -92.1179 3.67322 21.7966 -83.5439 2.30407 7.35379 -89.6239 -0.650929 
6.30303 -89.945 -3.78019 4.91388 -95.2906 -2.6865 5.6962 -93.3357 0.176518 
0.47449 -95.7888 -0.907 18.9659 -81.0227 -3.1133 19.014 -84.3287 -6.2453 
12.37 -85.8072 -6.51055 2.96982 -93.7602 -4.02542 7.26333 -87.1243 -6.71052 
28.3835 -78.4561 23.4885 23.9056 -79.7453 17.6277 16.956 -83.0279 26.4055 
30.7226 -80.4926 15.2488 27.4968 -80.9561 17.3054 24.7687 -83.4394 14.3624 
28.0053 -81.2687 12.8412 29.277 -78.3385 14.3093 16.5303 -82.2515 13.4767 
3.96167 -87.3819 18.4747 32.8273 -78.7363 13.1201 16.3771 -81.4534 -1.6026 
15.0741 -82.5828 -5.20212 9.3457 -81.953 -5.92095 16.8991 -78.6979 23.9708 
31.8498 -77.1128 17.8253 31.3098 -75.7818 22.5446 24.2343 -78.5793 11.8181 
2.52393 -86.4354 22.0743 31.1374 -77.4072 9.79458 22.1374 -79.139 10.2802 
5.89607 -84.2547 12.3415 29.4671 -77.7271 6.33318 24.1704 -76.5656 3.41192 
-4.75408 -89.1698 17.4128 20.7289 -80.106 0.144679 17.0371 -81.6931 3.36058 
-4.66454 -90.4507 6.58049 11.4444 -82.3214 -0.352568 -0.443761 -91.8533 -0.795719 
3.56855 -88.4629 -6.34782 24.098 -73.6087 28.4541 19.8034 -76.141 25.4179 
35.057 -74.7929 21.3824 28.8767 -73.1044 16.6607 4.90972 -82.6776 26.6697 
29.3282 -72.2496 13.7108 23.2818 -74.7615 13.9157 -1.11428 -86.4163 23.9324 
3.69652 -87.4093 19.8834 3.54696 -85.3459 17.0845 -4.59821 -87.1768 12.835 
-2.13013 -85.3762 9.66098 22.9818 -77.5246 2.52293 12.9466 -80.83 -0.0965441 
13.8547 -80.4841 3.19325 -3.14411 -88.3605 3.73062 8.13597 -79.3488 -2.80649 
-4.66671 -94.5545 1.51956 -4.78506 -94.949 4.77809 -12.3816 -93.9764 3.15767 
-1.11178 -90.2752 -5.00783 31.4931 -69.3446 28.3658 18.1591 -79.1729 28.6095 
13.6383 -79.1041 29.4541 30.472 -69.6798 16.8499 2.74608 -82.3392 20.6389 
28.1844 -75.3632 9.28447 2.57646 -82.9656 19.9594 5.77098 -82.898 14.751 
-4.16594 -86.2851 15.0721 4.59501 -84.1297 13.8425 17.5217 -81.5464 0.330464 
-3.74793 -87.3914 7.56703 -10.2046 -92.0176 12.1499 -5.59914 -91.3172 9.64248 
-4.1532 -93.0221 3.5729 5.41066 -85.3347 -7.02103 -2.91093 -93.0054 -2.53587 
-12.0078 -88.2893 -2.93408 -14.7181 -91.8653 1.79654 -7.39996 -88.6627 -4.07764 
35.9305 -71.4644 24.2723 18.2554 -80.0518 25.5358 33.17 -70.1258 21.4472 
7.51639 -78.2646 27.8471 3.118 -79.0688 24.5511 27.9872 -70.9262 16.7234 
-2.61202 -82.9634 24.8435 21.3826 -73.592 5.91228 21.1974 -74.9613 1.46838 
19.432 -76.6328 -0.849241 8.36281 -82.3907 2.06812 7.61094 -82.3147 1.47281 
-6.93189 -86.881 10.9314 -16.2355 -92.7515 6.07355 -12.8722 -88.0279 -1.99273 
-0.776947 -86.7281 -5.08094 32.1272 -65.5023 28.7833 17.4155 -75.8431 32.3731 
21.8585 -72.3566 22.1932 19.9231 -76.8237 26.299 11.575 -75.2465 28.658 
32.2192 -66.171 19.7717 26.1908 -71.8229 20.0617 26.6314 -68.7895 24.5329 
4.56029 -77.8046 17.5397 17.5142 -74.9992 12.2388 7.54739 -79.5662 15.5138 
27.0205 -71.7458 10.2477 -6.61535 -86.1171 20.7184 23.4196 -70.6734 9.69775 
20.0498 -71.6579 4.3944 14.9251 -78.2764 0.0550469 -11.3679 -87.5687 12.3216 
-13.8653 -90.7604 12.4132 6.16218 -77.2878 2.5456 -13.2805 -88.5506 -0.0749332 
6.05525 -79.6751 -5.52577 3.26674 -80.9699 -6.44671 34.673 -66.9258 28.6788 
23.6052 -71.2357 33.768 24.1506 -73.9766 29.1387 34.5788 -64.6911 26.1745 
27.3552 -67.7826 22.9375 22.6932 -71.9553 19.493 28.1809 -67.1305 17.2873 
15.9109 -75.8885 22.1134 27.072 -68.018 13.666 21.7778 -71.3325 14.1487 
-0.909101 -81.2877 21.8513 -8.36107 -83.6543 23.0481 4.58234 -79.5917 20.3297 
20.6617 -73.9049 8.42202 17.5666 -72.7407 1.33755 -20.4976 -89.0617 6.70213 
-12.9102 -85.478 0.187246 -19.9042 -89.5844 4.29085 -2.08155 -79.589 -5.50147 
-2.7788 -82.0824 -6.10703 -8.94411 -82.1665 -4.84101 -11.2367 -84.3109 -3.10421 
27.3369 -70.6155 32.139 29.5835 -63.8525 36.7165 30.8772 -67.2782 30.8168 
34.4913 -61.6519 28.2651 29.7219 -64.0146 27.9754 23.4446 -71.3401 25.1646 
19.0654 -73.4297 20.5157 26.5667 -66.1647 21.3004 24.5021 -68.0539 20.0575 
4.98738 -74.9824 21.7559 20.1103 -71.0147 13.6431 -12.8965 -87.1542 19.8949 
-8.30633 -89.4822 16.3673 -10.991 -89.8945 15.4025 18.6966 -70.4398 6.68097 
-9.03302 -87.2372 11.2219 -4.40628 -84.4711 9.89967 -13.4475 -88.0032 14.1784 
10.6446 -82.135 -1.08506 -12.939 -87.5364 13.6871 -15.6124 -88.7827 15.1163 
-10.8914 -82.2804 10.3187 10.4276 -79.6176 -5.24414 13.8414 -78.4752 -3.04225 
-19.9033 -89.0436 13.2587 -11.7108 -82.7534 -0.147584 -17.197 -86.885 -0.136007 
28.4036 -66.3347 26.552 16.2362 -70.1082 29.6906 34.3175 -61.6051 24.6529 
7.34024 -74.4733 25.524 20.7507 -65.699 15.6203 -1.48965 -78.7261 23.3467 
2.0838 -76.7254 20.6478 22.9757 -68.8225 9.83991 19.2104 -71.7416 9.07555 
-19.6249 -86.7117 15.4122 -11.737 -82.9766 11.9802 15.0682 -68.9291 1.8183 
-19.9108 -86.3951 15.4599 2.90572 -76.655 1.87118 3.12667 -77.5822 -3.52767 
-9.93522 -81.6576 2.73793 15.0126 -75.2728 -3.68132 -8.34849 -80.951 -1.34103 
-6.55521 -81.6433 0.386623 -2.5533 -78.9177 -0.816953 9.80083 -77.216 -6.59972 
0.616947 -79.3555 -0.710717 34.5654 -61.0314 34.8128 21.0992 -68.0723 31.3797 
17.4357 -67.1939 26.0324 25.8051 -70.1515 21.9672 29.9465 -60.7106 20.6896 
27.3623 -63.2294 17.8125 16.1658 -69.7815 13.5376 -5.72124 -79.3724 21.0489 
-9.96162 -79.4861 21.1981 -22.8791 -84.3814 19.0426 15.9979 -71.1123 7.39537 
6.70112 -78.3501 0.241493 -16.5455 -83.4179 14.928 -23.3723 -89.2172 6.9987 
-24.1516 -85.6494 1.27626 12.1114 -76.0723 34.1162 13.535 -73.5829 29.6611 
17.2258 -71.9539 36.06 34.9576 -54.4145 28.5666 9.63921 -78.8569 29.5919 
5.94623 -78.9832 32.6953 27.4093 -59.1782 25.7284 26.5939 -62.917 23.3313 
8.40618 -72.301 26.0399 4.74756 -80.5404 27.6754 13.241 -68.9138 23.0281 
8.82116 -69.6206 22.0965 -1.81558 -82.2359 26.9484 -1.81554 -78.7611 31.8066 
27.3267 -63.1794 18.3127 2.66439 -73.9017 17.1297 24.0458 -62.8771 14.8546 
-6.87082 -75.4193 22.6157 -14.3561 -83.8545 23.0501 13.1422 -72.3399 5.38102 
10.296 -69.2052 3.61401 9.93613 -71.2718 5.58345 13.8149 -68.9236 2.89108 
-24.4849 -86.7371 11.9864 12.0042 -71.8713 -4.23424 5.6138 -77.5818 -5.92941 
28.0008 -57.9516 36.9819 27.6572 -61.4424 37.0042 32.7356 -59.3381 29.4413 
18.049 -68.0602 34.2585 9.86273 -72.6493 36.6517 30.8378 -52.2986 28.3717 
4.17171 -75.9483 24.8468 1.86722 -76.8386 34.2963 1.07299 -78.3126 22.0164 
22.656 -62.9706 21.0869 -7.57893 -79.1391 25.7381 -8.7436 -79.2859 28.9972 
22.0592 -60.7092 17.5457 5.89066 -70.2193 19.4266 22.5441 -62.6051 17.2194 
-8.959 -75.552 17.925 20.6201 -68.2879 7.96725 19.6791 -70.7151 6.86865 
-24.7737 -82.507 14.5706 -22.6315 -81.5724 12.1933 -20.8513 -81.9117 11.3853 
4.03127 -76.4471 -0.67053 -10.8585 -82.3727 -0.196599 -23.4626 -83.4966 12.5729 
6.35619 -68.5315 -2.53975 -25.7376 -87.1658 4.8079 -26.8771 -83.0717 3.22133 
-14.5357 -83.9238 -2.38483 34.8652 -56.9125 33.4533 22.9836 -64.4379 35.9063 
16.7858 -67.8722 39.9932 15.5914 -66.4371 33.0101 14.7 -67.7589 32.0056 
28.2136 -59.2672 26.7138 12.8001 -69.3693 29.6901 25.2375 -61.7554 22.5463 
-0.432775 -74.1357 31.7006 -7.51655 -77.3314 33.1294 19.1071 -64.6765 16.2953 
26.2099 -58.9316 17.6558 -2.47882 -74.16 22.081 16.7838 -62.3861 8.69025 
-0.557208 -73.2965 14.8272 -0.524884 -74.8903 17.5303 8.89436 -66.6887 -0.0514847 
10.4367 -67.267 -0.779542 -10.11 -78.5904 -0.320433 3.33113 -77.5623 -3.43029 
1.71448 -76.0381 -5.34448 3.94403 -70.4333 -4.47831 -30.1992 -86.4154 7.51081 
20.3538 -61.7531 42.5395 20.6715 -60.0793 39.5659 36.92 -51.5424 32.5536 
34.6077 -56.1759 29.6718 30.6598 -55.4109 34.6196 6.1848 -70.4346 39.6987 
11.1367 -70.3476 24.8475 6.93239 -68.8218 26.8887 8.96036 -66.5305 31.1982 
6.57376 -73.7218 23.1029 2.34345 -76.3966 20.235 24.0436 -58.2588 18.4026 
-4.52267 -75.194 23.4878 5.99789 -67.4647 17.5736 15.1675 -66.0434 13.9119 
-8.21546 -78.4815 24.1774 -11.4075 -80.3003 29.5447 -19.5459 -81.9134 25.4501 
-19.1053 -78.0539 29.1938 -22.2274 -80.0113 25.4429 20.9334 -60.6256 13.6138 
13.3878 -71.0514 4.07329 -25.0002 -82.2964 18.6535 13.7314 -67.6376 3.34907 
[...]
POINT_DATA 10006
VECTORS deformation float
-5.94132 10.6731 -11.9116 -6.0048 10.7013 -11.8225 -5.83211 10.3357 -11.1822 
-6.25164 10.9584 -11.6205 -6.02808 10.1933 -11.4792 -6.55247 10.9184 -11.6127 
-6.40516 10.4759 -11.7594 -6.18249 10.1942 -11.6751 -6.27113 9.63461 -11.211 
-5.96347 10.4542 -11.5855 -6.42555 11.6158 -11.346 -6.02446 9.61237 -11.2394 
-6.29303 9.43239 -11.8771 -6.06009 9.65856 -11.6823 -5.96005 9.52664 -12.3567 
-5.81054 9.60775 -11.6041 -6.02642 9.99594 -11.3301 -6.66105 11.3249 -11.4816 
-6.11873 10.0358 -11.5313 -6.18701 9.74686 -11.6117 -6.35803 9.9831 -11.862 
-5.7345 8.85735 -11.7881 -6.004 9.89676 -11.334 -5.92205 9.4907 -12.3324 
-6.69941 10.8355 -11.5748 -6.54059 10.4868 -11.7948 -6.49833 10.2123 -11.9738 
-6.50016 9.96394 -12.0742 -5.88336 11.2911 -11.5422 -6.05239 9.75264 -11.3125 
-6.39679 9.77584 -12.7379 -5.97914 9.14677 -12.3126 -5.30831 8.95778 -11.4997 
-6.18266 10.0204 -12.4509 -6.18456 9.5024 -11.6197 -6.5014 9.59904 -12.5763 
-5.97959 9.74245 -11.1391 -6.16839 10.3768 -11.5882 -7.29291 11.2144 -11.4174 
-6.43564 11.6747 -11.4128 -7.00554 11.5657 -11.4794 -6.57519 10.3118 -12.1582 
-6.61087 10.052 -12.1943 -5.74988 9.04527 -11.4353 -5.6068 8.32771 -11.1206 
-5.47304 9.19497 -11.8076 -6.0895 8.80989 -11.2613 -6.10593 8.79037 -11.2198 
-5.02969 9.80239 -11.9036 -5.50647 10.2579 -11.7168 -6.06632 9.84128 -11.3922 
-6.06279 12.2576 -11.0339 -6.01344 9.54039 -11.425 -6.68686 11.4289 -11.7458 
-6.50478 11.7088 -11.5046 -6.29741 9.56053 -11.8496 -6.43556 9.72799 -12.0903 
-6.59809 9.8443 -12.2507 -5.98171 8.0819 -10.8719 -6.33151 9.28315 -12.7328 
-5.56861 8.6065 -12.0813 -5.30154 8.6808 -11.4413 -5.52513 11.9481 -11.1076 
-6.81783 9.96087 -12.6376 -6.25484 12.2041 -11.1686 -6.71022 11.6041 -11.7364 
-6.42852 11.5406 -11.4375 -5.93444 10.7062 -11.3061 -5.74006 10.4087 -11.6318 
-6.52028 10.597 -11.5074 -6.1482 9.17489 -11.9362 -6.56161 9.58698 -11.9972 
-5.87049 7.40255 -11.3007 -5.87523 9.14548 -11.1395 -6.13681 9.78493 -11.4913 
-5.99493 12.0205 -11.2172 -5.77316 11.5986 -11.4249 -6.50362 9.19607 -13.0022 
-6.8839 11.0532 -11.5122 -6.8409 9.25187 -12.9288 -6.5684 10.5506 -12.6052 
-6.40539 10.3563 -12.5172 -6.54001 10.9266 -12.0687 -6.60558 10.7115 -12.0723 
-6.44511 10.9964 -11.5661 -6.13926 9.15027 -11.586 -6.2781 9.2568 -11.5283 
-6.37841 9.47308 -12.0707 -6.22856 10.8777 -11.985 -6.8825 9.92762 -12.5145 
-5.60387 7.69944 -11.5474 -5.55448 8.59418 -10.9236 -5.23249 8.33731 -11.1325 
-4.85093 7.89596 -11.5804 -5.01124 7.50193 -11.3316 -5.64008 8.40676 -11.2416 
-5.19522 8.07716 -11.6873 -5.36358 8.79507 -12.5538 -6.06866 9.51166 -11.0045 
-5.60356 11.4162 -12.136 -6.17233 9.06328 -12.4825 -6.56129 9.26337 -12.3482 
-6.51633 9.4077 -12.0785 -6.48125 9.54255 -12.4351 -5.84289 7.68277 -10.8696 
-5.00615 6.91142 -12.447 -5.06337 6.98483 -11.9021 -5.2427 7.94368 -11.8667 
-5.4944 10.6429 -11.8803 -6.1989 8.89342 -12.8806 -5.33276 8.1302 -11.9873 
-4.58434 11.6229 -11.9845 -6.37157 8.88172 -13.0598 -6.57292 8.39859 -13.5365 
-5.04454 10.2979 -11.2442 -6.66355 8.61568 -13.3744 -6.84538 9.00397 -12.9867 
-5.4553 9.86003 -11.0178 -6.29641 9.26451 -12.474 -6.26118 10.2888 -11.7959 
-5.99459 10.1153 -12.9916 -5.81356 7.14518 -11.1692 -5.81547 7.30586 -11.0364 
-4.96627 6.62205 -12.8173 -4.90171 7.46322 -12.3009 -5.55511 9.55616 -11.4947 
-5.93506 8.5953 -12.9585 -5.4031 7.9774 -12.4402 -5.14683 10.8682 -10.9693 
-5.74602 11.5071 -11.0299 -5.71386 12.1782 -10.9599 -4.90518 9.18317 -10.4679 
-5.42139 8.9282 -10.5851 -6.52745 8.58586 -13.4666 -6.46758 9.16873 -12.5042 
-6.36935 9.0764 -12.9885 -6.03091 9.5845 -11.2874 -6.35011 9.01492 -12.6078 
-5.15243 9.77934 -13.0621 -4.91167 9.99989 -12.2858 -5.37836 9.51867 -12.866 
-5.94961 9.90555 -13.0378 -5.40918 6.95856 -11.9676 -5.15017 7.43503 -11.2395 
-5.03296 8.23163 -11.5751 -5.28437 8.53888 -13.0741 -5.21656 11.2238 -12.4128 
-6.24758 8.64425 -13.1456 -5.18623 11.2681 -11.6664 -4.9904 11.4767 -11.9622 
-4.78818 9.24197 -10.7989 -4.94161 11.9616 -11.2333 -6.0609 8.87334 -13.3479 
-5.39206 9.07571 -10.9734 -5.19008 9.14831 -11.9417 -4.99341 9.56791 -12.1258 
-5.24744 9.68939 -11.9708 -6.40002 9.41065 -12.7419 -5.69063 9.5668 -12.5245 
-5.655 9.1947 -13.7843 -5.73077 8.89703 -13.265 -5.69048 9.33335 -13.7177 
-5.38963 6.81809 -12.3493 -5.38805 7.60354 -10.6037 -5.23182 6.96108 -12.4468 
-5.33701 9.23112 -12.042 -5.16077 10.1624 -11.9228 -5.35699 7.88776 -12.8276 
-4.85742 10.361 -11.3084 -6.80797 8.53306 -13.8877 -6.85882 8.91487 -13.4653 
-6.60957 8.82582 -13.6727 -5.70762 9.2409 -12.803 -6.09732 9.189 -12.3749 
-5.3389 9.00168 -11.3195 -5.46219 8.80147 -12.4113 -5.80146 8.44633 -14.007 
-6.08401 9.98049 -14.0135 -5.65478 6.35973 -11.3779 -5.22736 8.17537 -11.2646 
-5.74459 6.57577 -11.2595 -5.38223 6.78245 -10.9758 -5.15942 8.72995 -11.7345 
-5.21956 6.48185 -12.2371 -5.91739 5.76156 -11.5187 -5.73689 6.08896 -11.5158 
-4.67842 10.5242 -12.1039 -5.29618 7.4838 -12.3432 -5.19103 11.288 -12.4888 
-6.15938 8.45223 -13.2924 -4.87215 9.66884 -10.709 -6.26274 8.36127 -13.5451 
-6.56565 8.39326 -13.9436 -6.24166 8.91277 -13.4848 -4.89912 8.71314 -11.1679 
-5.40768 8.46082 -11.428 -5.72532 9.11117 -12.999 -6.00406 8.21108 -13.6381 
-6.27795 9.584 -13.0344 -6.34414 8.99663 -13.077 -5.93461 6.31187 -12.1784 
-5.01735 7.50715 -11.3844 -4.92586 6.62058 -11.2543 -5.65944 6.7001 -12.478 
-5.69192 5.8387 -11.6452 -5.6167 6.30842 -11.2885 -5.12631 6.77465 -12.2365 
-5.60652 6.972 -11.0233 -5.77856 8.26174 -13.2765 -5.16866 6.99734 -12.3556 
-5.13641 10.6279 -11.675 -4.85356 9.9386 -10.8292 -4.82599 10.6166 -12.0956 
-6.31929 8.31388 -13.7223 -6.13816 8.52595 -13.8947 -5.31225 8.21121 -11.847 
-5.17674 8.28963 -13.8156 -5.40713 7.97174 -12.6188 -5.86189 9.09865 -13.8875 
-5.74383 10.0272 -14.0811 -5.63598 9.26012 -14.0026 -5.45516 8.68625 -14.3859 
-4.56988 6.64178 -11.1138 -5.46234 7.06004 -11.333 -4.78878 6.41044 -11.2792 
-5.65697 6.02507 -12.0071 -5.67582 5.90888 -11.7777 -5.2772 6.41888 -11.2006 
-5.45875 6.52305 -11.1603 -5.56488 5.77242 -11.6237 -5.55857 5.88393 -11.4566 
-4.70513 10.3457 -11.5381 -5.55376 7.17278 -12.8595 -4.83096 9.11087 -10.2009 
-5.12975 8.89127 -9.99349 -5.09281 8.43634 -10.3385 -6.36813 8.24276 -13.8391 
-4.76514 8.54321 -10.8547 -4.80152 8.57946 -10.6911 -5.11513 8.07372 -10.2074 
-6.03735 9.11788 -13.671 -5.04147 8.25113 -10.712 -4.82336 8.28651 -10.615 
-4.58821 8.59289 -10.4738 -5.78057 8.81891 -13.5389 -5.70752 8.91454 -13.6925 
-5.28937 8.57585 -10.9204 -5.29184 8.16893 -14.3701 -4.95445 7.90311 -13.0949 
-5.20445 6.03423 -11.3001 -5.03935 8.77779 -11.8346 -5.50011 6.18819 -12.159 
-5.15308 9.59855 -11.9605 -5.21398 7.13238 -12.9265 -4.70864 9.86374 -11.974 
-4.24447 10.5549 -12.0981 -5.94085 8.20316 -13.5458 -6.17047 8.20974 -13.6867 
-5.10134 8.16781 -10.505 -4.48485 8.51501 -10.667 -6.20509 8.44648 -13.8426 
-5.06304 8.21767 -10.7852 -5.28673 8.71035 -13.9671 -5.97355 9.08487 -13.2619 
-4.80774 9.00515 -14.1865 -5.87919 8.67383 -13.5918 -5.15439 8.84276 -14.07 
-4.63004 9.00578 -14.3753 -5.4109 8.58381 -13.8737 -5.75322 8.76511 -13.3416 
-5.42546 7.92319 -13.9924 -5.15581 6.22388 -11.0722 -4.99091 7.72203 -11.5683 
-4.51071 8.76348 -11.952 -5.41435 6.13402 -11.3127 -5.79958 5.6188 -12.2047 
-5.32654 7.70894 -13.1106 -5.27767 6.82821 -12.5489 -4.45777 9.87665 -11.5742 
-4.31005 9.53349 -11.0739 -4.42414 8.18382 -10.4923 -6.22913 8.1751 -13.6534 
-5.80287 8.9756 -13.7794 -5.02523 8.09997 -10.7148 -4.7717 8.36755 -11.3676 
-5.21286 7.42804 -12.6672 -4.01334 7.61625 -11.9295 -4.02965 8.05676 -11.6109 
-3.80516 6.70801 -11.517 -5.64985 5.54907 -12.357 -4.22082 8.07872 -12.0667 
-4.1947 7.39295 -12.0332 -5.58211 5.64889 -11.7865 -5.37538 5.63313 -11.4715 
-4.51513 8.40284 -11.7993 -4.57364 7.81138 -11.9767 -4.8653 8.9218 -11.634 
-5.07572 9.52788 -11.7239 -4.194 7.50766 -12.0665 -4.28055 7.08819 -11.9383 
-5.26171 6.32577 -11.7455 -4.34182 9.8237 -11.2658 -5.54091 7.97234 -13.4092 
-4.26421 8.9147 -11.825 -4.15815 8.46265 -10.5368 -6.51406 8.2092 -13.504 
-6.15828 8.07366 -13.8299 -6.18262 7.9895 -13.5221 -6.35258 8.38947 -13.8473 
-4.73135 8.30756 -11.0751 -5.83253 8.29311 -13.5314 -5.49691 8.58772 -13.8258 
-5.23788 6.52372 -11.1068 -5.14248 6.80121 -11.7693 -5.53604 5.7425 -10.9806 
-4.1671 7.43257 -11.1603 -3.96779 6.96727 -12.0471 -5.74458 5.51096 -12.4542 
-4.31998 8.45842 -12.4146 -4.10371 6.67481 -12.1994 -4.21312 8.52873 -12.1239 
-5.46313 5.69337 -11.5246 -4.26728 8.50158 -11.7023 -4.42768 7.45087 -11.515 
-5.04869 7.09321 -13.0339 -4.57191 9.64195 -11.1071 -5.24423 6.44329 -12.3515 
-4.28057 8.81375 -11.2146 -5.81212 8.13736 -13.584 -5.99455 8.11985 -13.6493 
-4.99464 7.84602 -10.7634 -5.0668 7.47926 -10.9971 -5.27125 8.01949 -11.1405 
-4.94988 8.45619 -13.8717 -4.46937 8.29132 -13.8341 -4.79094 7.7741 -11.1837 
-6.17245 8.48394 -13.6825 -4.00487 7.94594 -11.7446 -4.61153 7.70523 -12.0091 
-4.40836 7.89866 -13.6524 -5.3151 5.45527 -10.9441 -4.94976 6.69238 -11.8556 
-2.97087 6.37759 -11.4126 -5.24454 7.1003 -11.4511 -4.54137 8.21655 -11.222 
-5.40441 5.53045 -11.275 -4.9761 7.97545 -11.3398 -5.40031 5.61228 -11.7145 
-4.10475 6.49225 -11.814 -4.35727 6.8127 -11.5935 -5.22254 6.4197 -12.5809 
-5.26548 7.6365 -13.4343 -4.33621 9.75987 -11.9071 -5.65761 8.2448 -13.4612 
-4.57464 10.0414 -11.3762 -4.22813 10.3865 -11.7598 -6.37214 8.43772 -13.8065 
-6.30337 8.61117 -14.2449 -4.16869 8.25856 -13.8276 -5.02866 8.44896 -14.4398 
-5.28029 8.15462 -14.7996 -5.42774 8.37705 -13.9518 -3.93983 8.2704 -11.7079 
-3.02422 6.13812 -11.2027 -4.04285 6.7899 -10.7569 -5.37172 4.86174 -10.8756 
-5.49361 5.29354 -11.2751 -5.17994 5.73337 -10.7472 -2.86744 6.4027 -11.8951 
-4.84847 8.51737 -11.5348 -4.71748 8.45453 -11.2259 -4.64952 7.96852 -10.8674 
-4.95171 9.1235 -12.1616 -4.26413 9.33677 -12.1681 -5.42593 5.81759 -12.389 
-3.98399 8.76186 -12.0656 -5.04686 9.07294 -11.5379 -5.14134 6.46759 -12.8196 
-4.01466 8.35614 -10.8516 -3.39683 7.44041 -10.9504 -3.73346 7.99558 -10.5875 
-2.92874 6.77718 -10.6339 -3.19867 7.41667 -10.5328 -5.27646 7.77882 -13.6267 
-6.07362 8.06136 -13.6191 -4.30353 8.03677 -10.3941 -5.72424 7.97927 -13.6303 
-5.93426 7.6414 -13.9141 -5.79012 8.08187 -14.4601 -4.4542 8.63402 -14.3609 
-5.13891 7.60742 -14.8446 -4.91189 7.72183 -12.8285 -1.90006 5.92276 -11.5185 
-5.18176 6.29925 -10.8347 -4.41659 7.39162 -10.695 -1.65035 6.06233 -11.6884 
-3.49682 6.45656 -11.4691 -2.2939 5.95329 -11.6931 -4.99134 8.18362 -10.5459 
-4.73586 8.42733 -11.3211 -5.43032 5.56508 -11.3581 -4.18848 6.72649 -11.7078 
-4.74519 9.03654 -11.7201 -4.86156 9.45528 -11.8489 -4.23671 8.14874 -11.6793 
-4.3176 9.72863 -11.3214 -5.09602 7.33173 -13.261 -4.6738 9.46694 -11.0985 
-4.85614 6.46433 -12.9077 -4.1557 7.48816 -11.0818 -5.93326 8.07656 -14.1238 
-4.89283 8.63664 -14.7296 -3.62327 7.59338 -11.5282 -5.03829 8.16191 -14.9734 
-4.45128 8.70748 -14.619 -3.83312 7.69312 -13.8456 -3.47457 7.72331 -11.6292 
-4.11311 7.84901 -11.7174 -3.99481 6.77687 -12.9596 -3.5607 6.07816 -10.6607 
-5.15168 4.87693 -10.7128 -4.7301 5.89038 -10.6444 -5.65846 4.51205 -10.5993 
-4.2662 7.28131 -10.73 -5.47258 4.99447 -11.2443 -5.54317 7.01794 -11.0771 
-2.96917 6.20434 -11.5101 -4.32029 6.7366 -11.5418 -5.59643 5.54016 -12.4614 
-3.90328 7.28077 -11.2188 -3.63186 6.38403 -11.3772 -2.95684 6.7678 -10.7541 
-4.87418 6.00454 -13.0911 -3.5011 7.16008 -10.4337 -5.14248 7.64352 -14.7501 
-5.08487 7.53411 -13.822 -5.7854 7.88544 -13.7722 -4.42609 7.30806 -11.5645 
-5.46609 7.93075 -14.4556 -4.52175 7.94473 -14.6119 -4.1707 8.50619 -14.1059 
-3.98821 7.64861 -13.5771 -4.0227 7.6763 -13.681 -3.02955 5.89323 -10.8523 
-2.82838 6.00236 -11.0864 -4.84122 4.58137 -10.396 -5.12595 4.67632 -9.88271 
-5.14636 5.3101 -10.7413 -5.28089 5.63725 -10.2829 -5.08681 5.55642 -10.4823 
-5.00682 5.05197 -10.5798 -4.65706 7.46357 -10.0942 -5.60182 4.16065 -11.1556 
-5.53417 4.95157 -11.2916 -5.14721 6.3698 -10.7972 -2.11665 6.31428 -11.9109 
-3.87017 6.51257 -11.6652 -5.619 5.34638 -11.8782 -5.69239 5.34336 -12.5048 
-5.61295 5.08472 -11.5224 -4.16986 7.58009 -11.359 -5.2268 5.93969 -12.6038 
-2.97797 6.01605 -10.9264 -4.90573 5.77904 -13.0388 -5.08744 7.39065 -13.7638 
-2.74997 6.23288 -10.8354 -4.89913 7.63207 -13.4666 -5.07657 7.44346 -13.9828 
-2.33744 6.04129 -10.8796 -3.12405 6.76301 -10.7319 -5.5894 7.48453 -14.2302 
-4.43193 7.31545 -11.1705 -3.87723 6.4861 -14.6113 -4.37697 6.4061 -14.782 
-4.79372 7.3223 -14.546 -3.69337 7.58656 -14.1781 -3.12878 7.48406 -14.1501 
-4.54813 7.12865 -12.2408 -3.93623 6.75253 -11.7501 -2.58419 7.37624 -11.9771 
-4.63987 7.67405 -14.7407 -3.86089 7.46516 -13.644 -4.82394 7.16572 -10.2065 
-4.73599 7.70543 -10.6141 -5.62566 5.08032 -12.4594 -5.70822 4.93597 -12.2666 
-5.05413 8.25917 -11.1236 -4.80863 8.616 -11.094 -4.85878 8.92256 -11.2083 
-4.81364 8.73863 -11.3901 -3.23904 6.10733 -11.3484 -2.72611 5.9143 -10.5842 
-4.72425 5.61214 -13.0473 -3.10498 6.85741 -11.1307 -4.32095 6.9981 -14.4334 
-3.33003 6.81735 -11.3304 -5.29591 7.83109 -13.4602 -5.48965 7.51013 -13.4777 
-5.2869 7.64146 -14.9593 -3.8167 7.06335 -11.8436 -3.0781 6.87205 -11.5824 
-3.38463 6.03675 -12.4245 -3.46138 5.53549 -12.86 -3.63931 6.57309 -13.2299 
-3.67856 7.24315 -11.8379 -5.18815 4.62083 -9.14257 -4.27477 3.8064 -9.0555 
-4.75157 3.87204 -9.70706 -5.64867 5.29097 -9.50356 -4.39987 3.57086 -10.2729 
-4.78051 3.98257 -10.2754 -3.12998 5.45807 -10.5913 -5.47473 5.63692 -10.1296 
-1.89224 5.25258 -11.06 -1.58201 5.58954 -11.2354 -1.49488 5.81733 -11.4791 
-4.49329 6.91223 -10.3989 -1.84685 5.47766 -11.4774 -1.15974 6.06369 -11.5503 
-5.66583 5.32524 -12.4895 -5.54597 4.35905 -11.0443 -5.21102 6.69898 -10.7567 
-3.28907 6.15222 -11.649 -2.31583 5.89878 -10.9137 -4.75084 6.82861 -12.9639 
-2.77485 6.31323 -10.8608 -4.71994 7.81043 -13.2298 -4.74509 7.07455 -13.5465 
-3.4895 7.33933 -14.1645 -2.28173 6.74549 -14.3094 -1.98798 6.65754 -11.8449 
-3.69853 6.8064 -14.9202 -2.40623 6.79658 -12.2742 -3.13596 6.71937 -11.9085 
-3.10873 7.1321 -13.8002 -4.7059 3.59079 -9.11059 -5.10077 5.15677 -9.83406 
-2.56532 5.19171 -10.8267 -5.23984 4.17085 -10.8463 -2.61745 4.63857 -10.5021 
-5.20717 5.61083 -10.3432 -5.19729 3.86668 -10.7578 -1.74052 5.49109 -11.9447 
-1.59227 5.25494 -11.414 -2.37791 5.6606 -11.4222 -5.46419 7.11136 -10.7279 
-5.38485 5.47453 -12.609 -5.26294 5.17599 -12.4375 -4.69625 7.08989 -13.3821 
-4.37583 7.19134 -13.4419 -3.49341 6.85625 -11.304 -1.78687 6.95387 -11.8884 
-2.96053 6.48902 -14.4523 -4.17636 2.8664 -9.08097 -3.90213 5.9692 -10.2232 
-2.35955 4.29506 -10.5409 -1.89255 5.58472 -10.7016 -4.23677 6.21898 -10.338 
-5.04805 5.68129 -10.1564 -1.18135 5.43877 -11.4049 -1.0338 5.34984 -11.2421 
-5.22352 6.19669 -10.5314 -4.6072 7.24407 -10.6199 -5.64085 3.85525 -11.0615 
-1.21777 5.27744 -12.0319 -5.7167 4.17269 -11.1999 -5.41236 4.48435 -12.4291 
-3.89265 6.56155 -11.754 -5.00878 4.64328 -11.7299 -4.84405 8.47603 -10.7795 
-5.56261 4.4079 -11.4967 -1.27412 3.85073 -10.8486 -0.727707 3.85064 -10.9654 
-1.6782 4.37344 -10.9801 -4.67431 6.87863 -12.9807 -1.33748 4.65488 -11.2694 
-2.46875 5.29705 -11.1398 -2.01893 5.13399 -11.0154 -4.2397 6.11172 -12.4715 
-4.39409 5.36915 -12.7799 -2.3022 5.29669 -11.2357 -3.90232 7.45299 -13.1325 
-4.16702 7.28282 -13.3379 -3.31723 6.14642 -14.8237 -2.37745 6.90708 -14.4328 
-3.03242 5.58211 -12.673 -1.5542 5.99762 -11.7917 -2.62833 6.81141 -14.4264 
-3.03795 6.16373 -12.1841 -4.25349 2.94311 -8.42011 -3.16969 1.46319 -6.98594 
-3.02568 1.2408 -6.68016 -2.31262 1.57953 -6.79148 -3.47808 2.08407 -7.72182 
-2.19155 1.63125 -5.68327 -2.5168 1.11652 -6.27201 -2.21976 1.77363 -5.32486 
-2.12528 1.78309 -4.81417 -2.87764 1.80736 -6.89191 -4.04233 2.6439 -9.14158 
-4.4742 4.91033 -9.12827 -3.10289 4.98087 -10.4828 -1.73019 4.9263 -10.653 
-5.01298 3.11437 -10.524 -3.08354 6.07926 -11.296 -4.97594 8.15097 -10.7974 
-5.45097 3.96535 -11.2418 -2.33862 5.64512 -11.1555 -5.46788 5.38092 -12.7471 
-2.71234 5.55996 -10.9443 -0.662288 2.89091 -11.0717 -1.87898 4.71183 -10.7911 
-0.757652 3.55385 -10.9441 -4.39483 6.93951 -12.9951 -2.58761 6.02996 -10.9743 
-3.93195 7.13773 -12.9917 -3.43264 6.34566 -14.8897 -2.52064 6.66231 -10.8853 
-1.85849 5.99841 -11.2637 -4.40433 7.06332 -14.082 -4.08553 7.44765 -13.1251 
-3.33544 5.80599 -14.272 -4.26441 6.906 -14.0807 -3.45522 7.19431 -13.9992 
-3.34842 6.28347 -14.9949 -2.32948 6.51923 -11.946 -3.63342 1.94926 -7.60808 
-2.09724 1.7286 -5.32772 -2.48707 1.60078 -7.14618 -4.70532 3.03066 -9.97754 
-1.66293 5.11483 -10.5793 -4.60658 6.74495 -10.405 -5.22062 3.3839 -11.3614 
-1.12106 4.46032 -11.3066 -1.78811 5.17054 -11.3361 -1.36422 4.78111 -11.3978 
-5.64078 5.18013 -12.6823 -4.76102 7.71885 -10.9896 -2.52013 5.4394 -11.2132 
-4.99722 4.23483 -10.9639 -0.717588 2.5 -11.1318 -2.29046 5.45736 -10.914 
-1.11226 3.67895 -11.4346 -1.44571 4.2349 -11.3905 -2.62451 6.30919 -10.904 
-2.3908 5.5128 -14.519 -3.19436 6.72321 -14.0755 -1.69943 6.42083 -11.8634 
-1.94925 6.55966 -11.4925 -2.93946 5.78504 -12.48 -2.54767 6.35186 -14.8925 
-2.92989 6.08203 -14.8969 -3.14724 5.97672 -13.8887 -3.81707 2.57516 -8.57522 
-2.23181 4.28644 -10.6029 -2.62298 4.52554 -10.5528 -2.64693 4.24204 -10.5068 
-2.47141 4.09345 -10.3563 -2.06462 3.70917 -11.0419 -3.14583 2.29119 -8.38185 
-2.65336 1.59302 -6.16407 -3.25684 1.81125 -7.12056 -2.24748 4.75219 -10.576 
-0.428024 5.04739 -11.1412 -5.2255 2.82234 -10.469 -4.68959 2.18201 -10.2822 
-1.00865 4.84151 -11.7571 -2.5022 5.67891 -11.1942 -1.78222 5.18407 -11.2859 
-5.20946 3.34941 -10.8671 -1.47709 5.10163 -11.2136 -6.02163 4.78828 -12.5775 
-1.85031 4.93067 -11.1723 -4.76219 3.53417 -11.0488 -0.810809 2.87648 -11.1846 
-0.77401 2.48097 -11.1684 -2.15656 5.13497 -10.7855 -2.01488 4.76903 -10.8975 
-4.60617 4.26395 -11.9043 -1.73419 4.37396 -10.8346 -4.0701 5.56588 -12.1358 
-3.78289 7.28709 -12.9977 -2.48446 5.6107 -14.573 -2.7955 5.95573 -13.9609 
-3.82171 7.39887 -13.8713 -3.08292 7.49459 -13.8734 -1.92427 6.32838 -14.6042 
-2.31453 6.39789 -14.5633 -2.29637 6.02702 -12.0128 -1.80899 6.0661 -15.0402 
-2.69872 6.40761 -14.3233 -3.2368 2.10132 -8.10154 -2.5518 3.64278 -10.5279 
-2.46553 3.73894 -10.9622 -4.06439 3.5292 -9.18113 -2.28426 1.35409 -5.91134 
-2.14916 3.11847 -10.7758 -2.4311 1.42155 -4.88507 -3.71519 2.4583 -8.0847 
-4.73659 5.28075 -9.87341 -2.08617 1.16176 -5.53644 -2.82672 1.41161 -5.94686 
-1.90324 4.01663 -10.8606 -4.03953 2.55253 -9.20172 -1.05344 4.52912 -11.3795 
-1.05734 4.64346 -10.7623 -0.487449 4.33623 -11.123 -4.52893 2.63523 -9.97693 
-4.97577 6.17221 -10.1925 -4.6886 7.29469 -10.5222 -4.54463 6.9853 -10.5191 
-0.924319 4.39493 -11.7975 -4.92146 2.49828 -10.2564 -5.84493 4.98086 -12.638 
-5.54302 4.50993 -12.8078 -5.26456 4.77885 -12.6632 -5.54057 5.05762 -12.8688 
-5.67102 5.07819 -12.823 -1.26353 3.45234 -10.8171 -4.85527 6.6565 -12.5816 
-1.72074 4.75919 -11.5613 -1.13257 4.83638 -11.897 -1.51594 5.15508 -11.861 
-1.69919 5.39747 -12.1567 -3.42875 7.12259 -12.8491 -2.64489 5.77612 -14.4047 
-1.70874 6.32378 -11.7778 -1.83731 5.75741 -11.8628 -2.68638 5.44599 -12.7364 
-2.15837 5.98338 -14.8175 -2.55567 5.69675 -12.3819 -2.08277 6.1501 -15.2007 
-2.83892 5.45389 -13.6274 -2.90996 5.62077 -14.4607 -2.51947 3.61741 -10.692 
-2.7959 3.66554 -10.4363 -4.38018 4.51869 -9.62418 -3.42147 2.09538 -7.90171 
-3.62456 5.71199 -10.5946 -1.88997 4.0581 -10.5623 -3.60297 1.47164 -6.35502 
-3.2667 1.93871 -8.36652 -3.66393 1.70487 -7.2202 -3.50672 1.67718 -7.88941 
-4.67224 6.4252 -10.45 -4.488 2.27659 -10.3341 -4.75306 2.60229 -10.8025 
-0.743476 2.18812 -11.0224 -1.75457 4.34877 -10.9695 -5.82608 4.89405 -13.0394 
-1.06592 2.75597 -11.4013 -4.23772 6.40194 -12.3248 -4.66555 5.12612 -12.4656 
-3.80635 6.66685 -12.5954 -0.992741 3.8458 -11.6208 -3.33259 7.27846 -12.8076 
-2.80415 6.72168 -13.1203 -2.38147 6.66328 -13.7802 -3.34743 7.27893 -13.5172 
-2.06454 5.46773 -12.2181 -2.85369 7.45257 -13.7661 -2.67461 5.15865 -12.8479 
-2.29507 2.42808 -10.3616 -2.66999 3.05563 -10.4516 -2.04511 2.81211 -10.0042 