# vtk DataFile Version 5.1
vtk output
ASCII
DATASET POLYDATA
POINTS 9980 float
-137.451 -195.092 -45.1791 -135.449 -192.502 -42.5792 -138.123 -191.688 -42.505 
-119.421 -194.619 -43.1851 -117.898 -197.102 -44.1963 -116.309 -193.861 -41.5635 
-116.239 -197.161 -44.1059 -118.931 -198.161 -45.4829 -117.586 -199.538 -46.0862 
-131.528 -194.478 -43.9294 -131.302 -196.138 -46.1095 -129.119 -195.861 -45.2889 
-129.089 -198.261 -47.7957 -108.502 -196.382 -47.0881 -108.433 -193.831 -44.024 
-110.19 -196.798 -46.9965 -110.837 -194.076 -44.0108 -125.002 -198.872 -48.3944 
-122.292 -197.212 -46.8646 -125.008 -196.757 -45.867 -126.851 -196.935 -45.9775 
-110.465 -201.435 -51.9649 -111.847 -197.213 -46.9013 -111.417 -201.244 -51.2871 
-127.007 -202.959 -53.5646 -122.581 -201.213 -51.3213 -128.885 -202.003 -52.0667 
-104.542 -206.499 -57.7754 -99.4773 -205.298 -57.1408 -102.192 -204.176 -55.064 
-136.056 -204.354 -55.575 -130.432 -205.133 -56.3273 -134.534 -202.932 -53.4248 
-129.243 -204.164 -54.8084 -122.443 -204.445 -55.2152 -130.648 -203.173 -53.2509 
-104.32 -204.26 -54.9124 -105.715 -205.503 -56.612 -116.791 -209.439 -58.9433 
-116.207 -208.038 -56.0794 -117.578 -207.394 -55.3053 -114.729 -208.48 -57.4815 
-103.584 -207.731 -59.6487 -104.36 -207.171 -58.8807 -98.05 -206.142 -59.0101 
-105.574 -212.547 -67.006 -107.395 -210.845 -63.7045 -109.47 -210.526 -63.4047 
-115.388 -213.619 -66.6702 -113.955 -212.128 -63.6249 -115.253 -212.445 -63.8003 
-127.556 -212.161 -66.9766 -126.435 -210.837 -64.2862 -129.366 -211.393 -64.7891 
-133.393 -211.744 -65.4074 -134.734 -210.794 -63.2876 -138.914 -212.874 -66.3536 
-135.473 -212.678 -66.5622 -108.679 -213.699 -69.7535 -107.337 -214.085 -70.8153 
-110.869 -211.242 -64.4794 -119.664 -213.972 -68.4352 -120.229 -211.81 -64.7583 
-122.246 -212.468 -67.3363 -181.821 -113.11 -71.3654 -181.691 -113.856 -71.4317 
-180.242 -115.282 -65.9644 -179.907 -114.694 -64.5637 -180.813 -116.394 -70.8775 
-180.428 -116.403 -68.8594 -131.88 -213.093 -68.1988 -129.692 -213.37 -69.3179 
-123.761 -212.339 -67.2853 -127.594 -213.122 -69.5491 -125.122 -214.741 -73.1722 
-129.993 -214.706 -72.6335 -104.041 -214.286 -71.9752 -133.758 -215.75 -72.9286 
-117.712 -215.657 -72.1079 -120.731 -214.298 -70.505 -96.6459 -212.083 -68.9912 
-94.9516 -212.306 -70.9897 -94.5839 -211.079 -68.6066 -91.9271 -211.451 -71.3627 
-92.1971 -212.164 -72.799 -98.2898 -212.825 -69.8241 -102.44 -213.585 -69.6807 
-100.681 -214.125 -72.8724 -101.801 -212.575 -67.5039 -103.332 -212.814 -67.6339 
-97.4867 -213.659 -73.6129 -94.2658 -213.705 -75.708 -113.511 -216.794 -74.6052 
-109.681 -214.919 -72.1667 -111.668 -214.018 -69.0891 -140.177 -215.6 -72.788 
-142.111 -214.789 -72.2113 -144.284 -213.843 -72.8267 -144.368 -214.289 -74.9654 
-104.997 -216.189 -77.2525 -110.669 -216.62 -76.6371 -136.503 -215.261 -71.2768 
-138.105 -215.942 -72.8258 -135.142 -216.467 -74.5054 -136.303 -216.724 -75.6467 
-138.696 -216.29 -75.4347 -139.284 -216.611 -78.6455 -124.186 -215.659 -75.4845 
-127.387 -216.378 -78.4782 -128.584 -215.152 -74.3196 -115.144 -217.467 -75.9879 
-114.855 -216.366 -73.1694 -131.25 -216.544 -77.6701 -116.958 -217.169 -75.642 
-97.9762 -215.135 -77.9588 -133.812 -216.684 -76.0537 -132.74 -216.759 -79.0581 
-113.315 -218.095 -78.708 -101.227 -215.941 -78.0528 -117.811 -218.621 -80.7638 
-119.463 -217.012 -77.4312 -182.711 -111.32 -78.7363 -182.644 -112.119 -80.0613 
-182.329 -112.522 -75.5429 -182.315 -111.642 -75.6399 -181.605 -108.827 -77.4297 
-142.671 -215.806 -79.7643 -147.714 -213.207 -75.9225 -129.964 -216.911 -79.8885 
-94.9715 -215.256 -81.4299 -126.584 -217.102 -80.7421 -122.857 -217.496 -80.2794 
-120.502 -217.519 -79.8689 -136.315 -216.676 -79.8372 -139.01 -216.778 -80.0506 
-110.031 -217.865 -81.0494 -108.07 -217.465 -79.9304 -106.667 -217.596 -80.3008 
-145.885 -215.008 -81.2922 -150.196 -212.48 -75.9893 -147.07 -215.776 -86.1751 
-92.7368 -214.275 -81.8266 -91.9405 -213.104 -76.4763 -140.293 -217.021 -82.0945 
-120.918 -218.885 -84.2984 -84.5233 -209.157 -84.2256 -83.01 -208.08 -83.1081 
-85.655 -209.364 -78.0813 -87.314 -211.166 -84.6749 -82.7962 -207.766 -79.3952 
-84.6832 -208.623 -76.8846 -88.8885 -211.59 -78.2768 -99.6053 -217.08 -82.0502 
-103.392 -218.415 -83.1379 -135.764 -217.25 -82.386 -114.773 -219.479 -83.333 
-79.9761 -206.311 -83.8214 -79.6793 -205.589 -81.9407 -128.746 -217.677 -82.2036 
-132.929 -217.505 -82.9269 -138.315 -217.593 -84.3553 -107.128 -218.654 -83.1288 
-119.613 -218.832 -83.5773 -116.503 -219.778 -85.5225 -119.392 -219.238 -86.3286 
-110.471 -220.227 -86.9449 -107.973 -220.366 -87.2638 -112.841 -219.386 -83.5214 
-114.14 -220.128 -85.8883 -144.386 -216.448 -84.7773 -139.937 -217.587 -85.9134 
-75.8213 -202.49 -85.0926 -73.5876 -200.267 -87.1259 -74.8955 -201.016 -83.4651 
-151.734 -214.146 -86.7173 -149.876 -214.732 -85.2667 -155.229 -212.11 -83.1014 
-156.822 -212.031 -85.9225 -136.292 -218.2 -85.8887 -130.735 -218.139 -83.7441 
-135.867 -218.773 -87.0888 -123.756 -219.445 -85.7801 -120.918 -219.475 -87.0541 
-124.93 -218.777 -83.6644 -125.799 -220.066 -86.9019 -102.127 -219.195 -88.5601 
-102.607 -218.792 -85.0525 -105.019 -219.887 -87.3139 -144.319 -216.962 -87.8982 
-143.189 -217.519 -88.9581 -99.9636 -218.103 -86.1213 -98.9047 -218.127 -87.3456 
-128.285 -219.178 -85.1405 -115.697 -220.428 -88.3904 -159.593 -211.334 -91.6449 
-158.179 -211.942 -88.8514 -160.702 -210.456 -89.5746 -158.859 -211.327 -86.3744 
-156.401 -212.744 -90.1639 -92.442 -215.353 -86.9308 -96.1816 -216.998 -86.6219 
-94.7526 -217.432 -89.6456 -137.86 -219.09 -89.4773 -134.552 -219.835 -88.5925 
-109.409 -221.106 -90.2682 -152.585 -214.343 -89.177 -140.658 -219.009 -91.4507 
-119.126 -219.796 -88.843 -121.255 -220.017 -89.174 -122.896 -220.302 -88.5601 
-118.977 -220.165 -91.6076 -115.366 -221.347 -93.2096 -107.099 -220.706 -88.6105 
-133.009 -220.6 -90.3055 -132.118 -221.681 -92.9522 -130.501 -220.444 -87.5936 
-148.294 -215.637 -88.5715 -149.137 -215.8 -90.776 -153.931 -213.519 -91.8954 
-99.8837 -220.089 -92.0344 -96.3461 -218.379 -90.2607 -97.4086 -218.412 -88.9113 
-101.671 -220.562 -92.0004 -136.311 -219.914 -92.2123 -105 -220.642 -90.2423 
-109.527 -221.486 -91.52 -114.211 -221.349 -92.0393 -122.187 -220.608 -90.005 
-118.117 -221.189 -95.3344 -120.094 -220.892 -94.325 -127.188 -221.419 -89.5596 
-126.732 -222.407 -92.1841 -124.92 -222.085 -91.7525 -129.285 -222.337 -93.2342 
-126.583 -222.917 -94.12 -156.875 -212.62 -92.2911 -152.356 -214.486 -93.1112 
-91.5406 -215.656 -92.3942 -91.9806 -215.544 -88.9051 -92.6915 -217.075 -94.9677 
-96.7574 -219.013 -93.2975 -89.8589 -214.273 -94.3704 -103.987 -221.455 -93.6005 
-155.958 -213.085 -95.8041 -141.018 -219.948 -94.4625 -145.273 -217.716 -91.4937 
-119.626 -221.127 -95.2828 -107.494 -221.496 -94.919 -108.808 -221.423 -95.6178 
-112.95 -221.491 -94.2153 -158.952 -211.579 -94.662 -161.104 -210.038 -95.9115 
-102.338 -222.576 -97.2512 -103.763 -222.817 -97.5273 -124.351 -222.608 -93.6913 
-124.4 -223.32 -96.5192 -154.909 -213.78 -96.6192 -110.685 -221.564 -96.5054 
-128.635 -223.61 -96.7403 -133.949 -221.85 -95.1541 -113.419 -222.003 -96.4 
-115.601 -222.153 -98.5313 -110.138 -221.965 -98.6262 -125.982 -224.245 -99.0265 
-127.535 -223.844 -97.1785 -119.51 -221.728 -97.8248 -72.6379 -199.596 -96.5197 
-74.2113 -200.919 -94.857 -74.7024 -201.27 -96.3532 -75.415 -201.59 -97.6874 
-72.2955 -198.697 -98.8614 -107.642 -222.552 -100.16 -103.842 -223.271 -99.5131 
-156.74 -212.647 -97.6998 -158.704 -211.214 -99.4261 -112.097 -222.14 -99.4134 
-130.233 -224.099 -99.4207 -101.682 -223.196 -100.258 -100.134 -222.265 -98.4359 
-101.832 -223.276 -101.771 -122.921 -222.781 -96.2301 -123.448 -224.059 -100.37 
-125.414 -224.719 -101.213 -121.897 -223.788 -102.104 -120.622 -222.143 -98.1614 
-114.522 -222.673 -100.395 -119.728 -222.527 -100.81 -106.118 -223.178 -101.959 
-134.527 -222.755 -97.5587 -133.717 -224.628 -101.939 -136.733 -223.634 -100.894 
-110.03 -222.598 -102.015 -127.512 -224.897 -100.975 -164.888 -206.301 -101.521 
-167.526 -203.577 -99.281 -167.27 -203.9 -101.093 -168.497 -202.053 -102.447 
-169.212 -201.469 -99.2814 -165.953 -204.698 -104.35 -149.962 -218.85 -102.142 
-146.785 -220.28 -99.929 -149.316 -218.936 -100.091 -144.09 -221.403 -99.2695 
-144.468 -222.031 -102.202 -145.355 -221.843 -103.823 -114.982 -222.731 -102.54 
-99.6082 -222.492 -105.395 -118.647 -222.65 -102.4 -103.975 -223.319 -102.246 
-87.4963 -213.498 -102.081 -86.5694 -212.115 -102.664 -86.0413 -212.217 -100.194 
-86.5624 -212.38 -104.329 -84.44 -210.849 -105.681 -143.06 -222.953 -104.484 
-139.212 -223.834 -102.617 -141.663 -222.842 -101.198 -129.104 -225.632 -104.762 
-152.445 -73.3482 -102.306 -153.349 -69.8552 -101.22 -151.835 -70.6845 -101.78 
-150.564 -73.3674 -102.242 -95.4781 -220.632 -104.448 -95.3196 -219.888 -100.339 
-96.9632 -221.542 -104.235 -111.611 -222.671 -104.538 -113.043 -222.827 -105.225 
-123.763 -224.818 -103.284 -102.907 -223.256 -106.221 -132.884 -225.569 -105.417 
-116.568 -223.183 -105.32 -119.466 -223.243 -104.796 -109.442 -223.287 -105.947 
-107.793 -223.256 -107.795 -111.384 -223.045 -107.132 -141.551 -223.438 -105.607 
-132.957 -225.697 -106.524 -138.027 -224.748 -107.895 -125.611 -225.637 -105.364 
-122.407 -224.654 -104.718 -128.329 -225.659 -107.844 -144.341 -76.697 -105.87 
-144.449 -75.1008 -104.806 -146.321 -75.8158 -105.187 -93.1635 -218.707 -107.456 
-89.0909 -216.719 -107.632 -93.0193 -218.662 -103.684 -148.927 -220.453 -106.669 
-149.951 -219.231 -103.955 -151.274 -218.625 -106.734 -114.194 -223.276 -107.096 
-115.591 -223.33 -108.168 -119.151 -223.229 -107.648 -120.535 -223.424 -104.039 
-119.928 -223.431 -108.105 -143.995 -76.5191 -105.15 -144.301 -74.7549 -103.595 
-97.049 -221.367 -107.58 -101.333 -222.833 -107.563 -144.29 -223.028 -106.444 
-142.199 -223.74 -110.492 -140.601 -223.919 -108.066 -124.711 -225.75 -107.773 
-102.992 -223.278 -108.943 -104.591 -223.392 -108.865 -133.03 -226.262 -110.149 
[...]
POINT_DATA 9980
VECTORS asymmetry float
0.217336 -0.0594126 0.852365 -0.913369 -1.2311 -0.0364471 -0.329272 -0.191472 0.395605 
-0.0656394 -0.40935 0.273185 -0.615044 -0.0376776 0.186376 -0.173471 -0.0762926 -0.0148094 
-0.494014 0.0175852 -0.122871 -0.704412 0.21796 0.719957 -1.18936 -0.225294 -0.0410808 
-1.30032 -0.909706 0.293031 -2.3234 -0.997012 0.581319 -1.59778 -0.933643 0.178849 
-1.22157 -2.22796 -0.867973 2.35332 0.0718613 -0.234685 2.49984 0.762925 0.25102 
2.1793 0.70105 0.597374 1.68735 0.830101 0.526234 -0.78565 -2.08111 -1.4966 
-0.878649 -0.887826 0.0590605 -1.07194 -0.696557 -0.213687 -1.06838 -1.39057 -0.70938 
1.64988 0.64911 0.409626 1.35783 0.438939 0.521687 1.07863 0.410739 0.244808 
-0.941165 -0.911007 0.053149 -0.102913 -0.978925 -0.24866 -1.09945 -1.06607 0.244044 
0.088101 2.05814 0.559528 -0.820206 1.37764 -0.638164 0.537831 1.76133 0.070028 
-1.352 -1.30541 1.01658 -1.50438 -1.31324 0.763944 -1.89962 -1.60604 0.69312 
-0.87269 -1.42817 0.0365089 -0.48218 -1.05863 0.0583391 -1.22695 -1.57039 0.182577 
0.833772 2.40577 0.874324 1.03498 2.43179 1.08916 0.562594 0.106197 0.0658461 
0.556453 0.258305 0.0771592 0.0335242 -0.138265 -0.0477906 0.700726 0.481007 -0.243665 
-1.01661 1.63628 -0.123711 -0.582031 2.11261 0.490247 -0.920725 0.811431 -0.949151 
0.3037 1.6552 0.686355 -1.11124 1.87534 0.680792 0.599457 1.89639 0.846304 
-0.291363 1.56966 1.07871 -0.448693 1.86025 0.370465 -0.691724 1.86572 0.55117 
-2.03796 0.326412 3.39963 -2.30238 -0.167895 2.45563 -1.80105 -0.0765515 2.27489 
-1.22263 -0.889015 0.625094 -1.35617 -0.516632 0.89119 -0.415322 0.00738977 0.384299 
-1.53721 -0.471263 0.778252 -0.263774 1.75155 1.1304 0.544299 1.58024 0.707837 
0.00109858 1.36337 0.268931 0.296069 0.150132 1.30304 -0.0657984 -0.398694 1.3605 
-1.09418 -0.992647 1.43837 -0.485333 0.736475 0.154141 -0.338371 0.257803 0.322196 
0.452229 0.381941 -1.39851 0.523007 0.241303 -1.99055 0.230425 0.65618 -1.22684 
0.989631 -0.356639 -1.60683 -1.4316 0.0153494 2.47074 -0.574969 0.279869 3.3219 
-2.13739 -0.287986 3.338 -1.09332 -0.36705 2.43664 -1.01825 -0.15683 3.52236 
-1.09726 0.129195 3.06989 1.21174 1.24499 0.537795 -0.946785 0.644501 2.67513 
0.556068 0.160848 0.339531 -0.179349 -0.701714 0.977422 0.184289 -0.413489 -0.635694 
1.48121 -0.787473 -0.118343 1.05066 -0.938724 -0.917967 2.59633 -1.70923 -1.22587 
2.94106 -1.50255 -0.574169 0.150325 -0.0498399 -0.277411 0.59505 0.813259 -0.356712 
1.19308 -0.217822 -0.922003 -0.610984 0.628437 -0.459099 -0.811611 1.43308 0.299311 
1.43547 -0.714192 -0.348121 2.3665 -1.00733 -0.0598795 0.919406 1.36525 0.219268 
-0.365922 1.83127 1.2312 0.0435469 1.72602 0.748733 2.45033 1.51263 0.583184 
2.13684 1.80945 1.84696 3.02785 2.11015 1.45626 2.92448 1.65187 0.561915 
1.40807 1.41871 1.18576 0.930349 1.46005 0.587078 -0.836431 0.640159 1.44922 
0.941254 1.44401 1.63204 0.349458 1.23929 2.48235 1.82682 0.670713 0.424037 
2.67512 1.46588 1.38646 2.47661 0.784281 0.187658 -0.829678 -0.982988 1.70768 
-0.961543 -0.560862 2.60343 -1.38653 -0.165427 3.16146 1.37552 0.583691 -1.05875 
0.672623 1.0635 0.23099 -0.108344 -0.230555 1.8932 1.5777 0.0257364 0.0995858 
1.59907 -0.481632 -0.119138 0.872946 0.208122 0.687208 0.880708 -1.40124 -0.92161 
1.0813 0.884898 -1.27686 1.12719 0.182672 0.274656 0.769908 0.0431585 -0.243044 
0.590257 -0.456461 1.19519 -1.37313 0.354465 0.809956 -1.45096 1.0764 0.267935 
-1.02446 0.339689 0.592215 -0.976794 0.588784 0.874113 -0.526553 0.331372 0.73824 
2.07588 0.979134 0.965662 2.58726 2.2114 1.85496 -0.0324423 -1.01586 1.0307 
2.72273 -0.532027 -0.317479 0.187831 -1.02651 0.97211 0.0929325 -0.87238 1.36332 
-0.77159 -0.847473 0.124387 1.38391 -0.748175 -0.212553 2.23065 0.164769 0.351732 
0.520266 1.07224 -0.605956 0.98918 1.41141 0.227083 0.424739 1.46012 0.453223 
1.40897 1.16368 1.49689 1.4552 2.15372 2.2745 1.18244 1.27105 1.96475 
4.19771 -1.34331 -0.598051 3.07007 -1.21616 -0.0874767 1.23411 -0.37054 -0.664676 
-0.08818 -0.720658 0.256228 1.39205 -2.73178 -1.65581 0.441945 -2.60888 -2.38441 
1.51176 -2.12076 -1.73085 3.39747 -2.35092 -0.916095 1.27256 -2.78643 -2.43364 
0.427638 -1.49975 -1.08009 2.81641 -1.59728 -0.635107 1.3069 0.854583 0.0871615 
0.97744 1.72409 1.27258 1.47731 -1.2288 -0.913388 1.07973 0.64929 -1.18805 
0.878522 -3.11805 -1.96801 1.18012 -3.10546 -1.93277 1.18145 -1.32051 0.2542 
1.58515 -1.46588 -0.0893001 1.16613 -1.0071 -0.39759 0.831686 1.35382 -0.0730702 
-1.07839 -0.169651 -0.133316 0.136688 0.396203 -0.884047 -0.751813 -0.105297 0.0707014 
0.825708 0.674384 -0.695331 1.02548 1.1639 0.166853 0.101799 0.771848 -1.03311 
0.0517845 0.70144 -0.770511 1.11429 0.213943 0.849995 0.818489 -1.06783 -0.0120185 
1.99727 -4.41507 -1.29277 0.827173 -4.09446 -2.14752 1.48806 -3.55196 -0.569178 
1.18358 2.12995 0.914473 -0.0336014 1.14287 1.2292 0.695698 2.68389 0.754538 
0.251293 2.87071 1.92512 1.69143 -0.888914 0.637389 2.29309 -0.960378 0.815027 
0.654853 -1.05894 0.447276 -0.220838 -0.650663 0.686662 0.0130067 -0.344195 1.14632 
-0.0935879 -0.853728 0.774185 0.663876 -0.443598 0.647545 0.417152 1.4567 0.549675 
1.28489 1.71761 0.502085 1.1981 1.82915 1.21773 1.27377 0.283774 1.72123 
0.478087 -0.59674 1.54713 1.34501 1.33193 0.699472 1.022 1.20321 0.534385 
1.12617 -1.13779 -0.203401 0.251642 0.427124 -0.266142 -0.0812461 3.14456 -0.478267 
-0.0884472 2.92408 0.7697 0.715269 4.25166 0.747185 0.61288 3.84502 2.00991 
0.52302 2.69269 1.07025 3.83679 -0.603007 0.344608 2.33188 0.492165 0.180268 
2.73908 0.516473 0.503048 0.547453 -1.42859 0.0682311 1.31412 -1.2233 -0.736233 
1.13196 0.447223 -0.034922 0.258842 1.97298 1.39863 0.850013 -0.848808 0.818739 
-0.294917 -0.0319016 0.272724 0.170163 -0.250989 0.946656 -0.293867 -0.191087 0.883096 
0.171391 0.0750065 0.369359 0.717137 0.516878 1.78678 0.539495 1.15364 0.327417 
1.38555 -1.16078 -0.828928 1.63834 -0.259057 0.18761 1.21792 -0.586093 -0.277298 
1.12589 1.13037 1.42242 0.774443 1.57079 1.05376 0.13633 1.51048 1.05641 
2.28477 1.58583 1.56338 2.20131 1.36871 1.37945 1.99889 1.33149 1.20813 
1.6197 1.40172 1.02645 1.28646 -1.54761 -0.233751 1.32499 1.14043 1.08014 
1.40998 0.364741 0.869572 1.25224 0.653331 1.25789 -0.0214384 0.113776 1.03163 
0.327437 0.073484 0.623476 -0.281906 -0.0294393 -0.210023 0.775228 -0.226319 -0.227852 
-0.404372 0.49422 -0.663482 -0.498551 0.31472 0.27158 0.843133 0.545014 -0.56375 
0.809472 1.07617 -0.723496 0.220452 2.25294 -0.00962581 0.639482 1.31453 0.0782887 
2.12632 -0.662529 -0.351836 2.26903 -0.566383 -1.23766 1.20036 0.176704 0.231399 
2.6096 0.95613 0.802791 0.937062 -0.97397 -0.521512 1.57045 1.12483 1.0885 
0.232542 1.58668 0.5522 0.89023 -0.466222 1.10187 1.0392 0.286204 0.999137 
-0.375442 0.0240862 0.148501 1.81802 0.101224 0.764562 2.20337 -0.560546 1.23665 
0.950626 -0.201478 1.51581 -0.144699 2.32007 0.845529 -0.456408 2.7346 1.68118 
2.28205 1.25434 0.196501 2.55509 0.886831 1.31366 0.102451 0.798248 0.16654 
0.810188 1.11566 0.125345 0.0937709 1.40597 0.0773698 1.31858 -0.823937 1.40778 
0.720992 0.815395 -0.310612 1.41354 -0.840849 -0.116902 0.766438 -0.499708 1.43055 
0.146779 -0.625484 0.931948 1.23856 -1.24863 0.654667 1.15269 1.64933 -0.0780269 
1.00991 1.41288 -0.316858 -0.42495 -0.12395 0.167973 -0.231331 -3.22992 -2.50385 
0.199858 -3.98553 -1.47968 -0.215118 -3.63445 -1.51937 -0.55153 -3.34951 -1.2123 
-0.557592 -2.71017 -2.18434 3.1649 -0.531712 1.05205 3.93703 -0.00351149 -0.714192 
-0.466319 0.989056 1.06429 -1.24314 0.517859 1.78761 0.990305 -1.4011 0.162128 
1.2699 0.952829 0.198153 2.25688 0.622418 -0.225231 1.19422 1.38287 -0.163871 
3.02118 -0.374583 -1.25601 0.34886 0.56613 -0.708583 1.29908 1.27721 -0.449588 
1.95123 1.81216 -1.45672 1.51104 0.931413 -0.345768 -0.632011 0.225743 0.0214222 
1.18932 -1.02549 -0.225606 0.0500129 -0.143161 -0.00294562 3.47416 -0.77316 0.377112 
0.972201 -0.707251 0.626878 0.993217 0.736575 0.857721 0.753388 -0.212565 1.26652 
2.47556 -1.44339 0.180213 1.55992 1.79809 -0.131659 -2.40382 0.493572 0.69625 
-2.13346 1.2371 0.968524 -2.56732 0.669827 0.298651 -2.21945 1.34575 -0.32026 
-2.09443 1.62399 0.519594 -2.76694 0.159635 -0.231345 0.419126 1.4382 0.941873 
0.431276 1.0972 -0.203215 0.974489 1.54803 -0.24927 1.39617 1.28587 -0.715061 
0.269157 0.849155 0.254559 0.854425 1.83317 -0.155659 2.6114 -0.990611 0.0777661 
1.31569 -0.653304 -0.365419 1.53983 -0.162357 0.0231535 4.37557 -0.57282 -0.0818601 
-0.0961605 -1.57796 -1.17186 -0.919355 -1.23667 -0.898637 -0.889921 -0.834857 -0.817712 
-0.398876 -1.54651 -1.1754 -0.421958 -1.19999 0.0839212 0.211165 0.992805 -0.297493 
0.579047 0.664523 0.0561227 0.766637 0.622858 -0.022107 1.44466 1.90355 -0.0695202 
-2.69954 -2.13252 -0.24678 -2.43056 -2.90434 -0.276432 -1.8168 -3.03104 -0.459198 
-1.86737 -2.21758 -0.787383 0.0894097 -0.835898 -0.566438 0.308421 -0.350293 -0.502042 
0.765529 -0.358683 -0.27949 3.6865 -1.65771 0.195017 3.34251 -1.67312 0.203945 
2.23609 1.68439 -1.05466 3.3851 -1.41894 -0.998567 0.403207 1.5458 -0.175597 
2.75648 -0.267583 0.406359 1.47845 0.00784341 0.00890201 4.11966 -1.72307 -0.292216 
3.28212 -1.87572 0.442637 3.25742 -2.20066 -0.119246 0.222391 1.02286 -1.08958 
2.29999 1.91354 0.376032 0.964223 1.23992 0.734815 1.99015 2.14975 -0.692837 
1.15094 1.40309 -0.0988592 2.43088 2.25134 -0.0521827 -1.56499 -1.16663 -2.165 
-1.92518 -1.47628 -2.32342 -3.20823 -2.12582 -2.37506 0.919043 -1.82315 -0.271797 
1.01642 -1.60685 -1.15984 0.471979 -0.873357 0.115425 0.28515 1.76364 -0.258278 
0.921483 1.74669 0.59868 1.03453 1.61177 1.62698 3.27965 -1.12239 0.556621 
3.75423 -0.2131 -0.158591 1.86512 0.0309273 -0.210547 0.294443 0.270128 -0.164121 
1.17235 0.47735 0.335055 -1.27669 -0.711065 -1.98234 0.277606 -1.20904 -2.83207 
0.263399 -1.03839 -0.763458 1.3827 -1.17203 -1.68802 0.602997 2.25581 -0.979452 
0.625714 1.65384 -0.919555 0.738733 0.968269 0.158816 1.79795 2.31571 0.584486 
3.39776 -1.60896 0.047058 2.76189 -1.63351 0.144667 1.78662 2.15889 1.79518 
2.45484 2.34239 0.926888 4.56461 -1.93522 -0.777949 4.5019 -1.56947 -1.13093 
3.53389 -1.14658 -0.816827 4.27075 -1.6983 -0.43249 2.66067 -0.25238 -0.971931 
3.59274 -0.788441 -1.35176 2.25868 -0.229647 -0.948126 4.19489 -0.796076 -1.10211 
2.83725 -0.611029 -0.414911 1.71805 -0.0925095 -0.58603 2.748 -1.91977 -0.474146 
3.33168 -0.145318 0.0968442 2.43414 -0.0158194 0.0197342 2.41233 2.79956 1.13232 
-2.70405 -1.72881 -2.042 -3.03494 -2.83193 -2.38678 -3.47978 -2.12621 -2.0954 
-4.0428 -3.71854 -2.82794 2.83239 -2.0792 -0.329286 2.96638 -0.367612 -0.0397593 
0.132874 2.08074 0.173049 1.42404 1.02705 1.22093 0.713001 -0.327274 -0.459782 
0.81668 -0.577954 -0.107502 1.57516 -0.669002 0.128493 0.84002 -1.10412 0.477169 
0.427273 -1.67045 0.296485 -0.0865648 -1.54877 -0.242849 0.876563 -1.29442 0.716506 
-0.0731438 -1.23182 -0.394019 -1.10034 3.23466 0.28663 -1.4534 2.57246 -0.636182 
-1.11064 2.57459 -0.226665 -0.997368 0.202059 0.360803 -0.555045 -0.0665218 0.51017 
-1.32445 0.464384 0.882976 0.987084 -1.85113 -1.25127 1.08883 -1.59535 -2.27769 
2.75668 -2.26264 -1.13508 2.77687 -2.76452 -1.11038 2.28072 -2.60627 -2.28404 
1.65615 -1.06355 -0.853802 2.14165 -1.05853 -0.943563 3.32586 -1.38019 -1.19756 
3.04806 -2.29702 -1.36526 3.60022 -0.78149 0.337214 1.40927 2.0194 1.77567 
-1.02251 1.58425 0.00301492 -1.22025 1.80764 -0.271148 -1.71634 1.86427 0.0863059 
0.0426627 -1.62287 -0.908152 0.154929 -1.89036 -0.752443 0.563947 -0.763289 -0.813602 
0.837022 -0.197676 -1.31822 0.289142 -1.61325 0.624694 0.723831 -0.730272 1.3727 
-0.308029 -1.71636 0.0921267 0.188264 -1.07003 0.655656 0.293501 -0.97048 -2.09364 
0.0319403 -1.61683 -1.71239 2.37567 -1.15835 -0.958514 1.45118 1.86053 1.39447 
2.98561 -0.513292 -0.0815789 2.3096 -0.067797 -0.123494 1.50477 -1.73712 -1.4434 
1.79848 -1.04405 -2.52767 0.583016 0.984629 0.263794 1.03377 -1.23697 -2.79071 
-0.676562 -0.543891 -3.62023 0.802238 -1.42108 -3.14874 1.42578 1.01332 1.46328 
1.85053 0.434434 0.551579 1.48281 0.178831 0.343448 1.05307 0.630378 1.25535 
1.5079 -1.81629 -2.72698 0.19232 -1.22577 -1.29517 2.94749 -2.35031 -2.62567 
2.08335 2.73876 2.19931 1.82145 2.18768 1.91299 -2.11988 1.77906 -1.65222 
-2.03391 2.18092 -2.09482 -2.23491 1.65523 -0.89716 -2.10342 2.27243 -1.31937 
-2.00845 1.7137 -1.74845 -1.74166 2.36007 -1.94556 1.54281 -0.377187 -1.71402 
0.617536 0.134885 1.22349 1.60858 0.515559 1.77922 1.87477 1.40575 1.97642 
-0.441974 3.4049 2.59947 -0.945127 3.63723 2.93045 -0.32781 2.27592 2.09065 
-0.755191 3.05515 2.48183 -1.47912 3.89083 2.32557 -1.41924 4.3169 2.61659 
0.29692 0.4413 0.443597 -0.120694 0.562585 0.620666 0.775799 1.61756 0.327678 
0.770399 0.944212 1.63275 0.810283 1.24728 1.57477 1.00095 1.3685 1.80923 
3.16771 -1.38675 -0.578066 2.40141 -1.54825 -3.5446 2.46338 -1.88428 -2.33731 
1.78149 -0.716065 -2.3795 1.63641 1.1945 2.30806 1.4457 1.71036 1.9556 
2.08298 1.44426 1.79292 0.356237 -0.0903684 -0.207417 0.251351 -0.072495 -0.34611 
0.475576 -0.121795 0.27261 0.801865 -0.0328301 -0.0627717 1.13159 -0.397417 -0.0457031 
0.069768 -0.511351 0.501603 -0.212491 -0.531418 0.899423 0.0636391 -0.152704 0.670543 
0.487461 0.167263 -0.0907302 0.780854 0.185646 -0.326875 0.494762 0.0999084 -0.339367 
0.665225 0.343456 -0.146328 -0.419382 -0.29234 0.937094 -0.134943 -0.334437 0.680874 
-0.968836 4.28354 2.72861 0.0620643 3.63884 0.98853 1.04025 4.02199 1.20462 
2.32967 4.12449 -0.157062 -0.423119 3.51737 0.381088 0.936499 2.48045 -1.3789 
3.38509 -2.36202 -1.11589 0.705156 -0.535007 -1.86857 0.833978 0.582203 1.00341 
2.37927 2.43595 2.39184 2.51092 2.28465 2.60349 2.08399 -0.262454 -0.140594 
0.828914 0.504853 1.78582 0.278317 1.08751 0.796018 -0.207541 0.614292 1.5038 
0.161378 0.0983768 1.91006 0.98758 0.676105 1.34961 1.79733 0.9383 1.75758 
0.459281 -1.06445 -1.37424 0.774808 -0.439248 -1.2964 0.860651 -1.03362 -1.4175 
1.37152 -0.727511 -0.996071 1.97773 1.58612 1.94516 2.82278 2.32086 1.87613 
2.02617 1.9217 2.27944 0.681343 1.10487 1.08234 4.30352 -2.67567 -0.512098 
-1.13096 -0.405847 2.17309 0.491401 1.08838 -0.321786 0.311341 0.205267 -0.0497589 
0.412393 0.265715 -0.121516 0.145029 -0.0237481 0.0423678 0.541063 -0.045857 -0.0646991 
-0.449693 -0.230846 0.194197 -0.98367 -0.282244 0.732323 -0.533242 -0.504717 0.624765 
0.0618835 -0.372745 0.351498 -0.555094 -0.598318 0.898353 -1.17417 -0.715598 1.22513 
-0.168248 -0.258639 0.0073596 0.703405 0.332524 0.150415 1.64757 -0.0152014 0.174049 
2.01491 -0.198277 0.235777 2.75533 -0.463575 -0.208783 4.71867 -2.3378 -0.245978 
3.29082 -0.994276 -0.584192 -1.22093 -0.64953 2.22579 -0.2842 0.0232456 1.65401 
1.57284 1.70208 2.46442 1.95498 1.82915 2.30106 2.25648 0.578262 2.58955 
2.14584 0.668086 1.5056 0.820442 0.755305 1.19683 -1.8222 -2.1702 -0.287527 
-1.48833 -1.73159 0.107204 -2.58377 -1.32672 1.35321 -2.46498 -1.04028 1.21088 
-1.68843 -1.69961 0.047418 -1.38655 -1.56367 0.608114 -2.20819 -0.853023 1.4117 
-2.39956 -1.04665 1.22914 0.828225 -1.06896 -1.14716 1.38267 -0.550151 -1.61282 
-2.17281 -1.34521 -0.756728 -1.90807 -2.21165 -0.913079 -1.7172 -1.52453 -0.625746 
-1.51529 -2.32631 -0.758748 -1.8188 -1.11512 -0.358643 -2.68117 1.9982 -0.153218 
-2.31128 2.52431 -0.0353803 -2.44534 2.08917 0.169083 -2.94883 2.17259 0.406831 
-2.73738 1.74647 0.221682 -2.46926 1.39173 -0.248245 -2.31533 2.07235 0.222161 
2.18993 -0.622235 -1.78095 1.58567 -0.76135 -1.12879 0.0345346 1.93442 0.598323 
0.241029 2.30832 0.189685 0.135144 2.23587 1.17804 0.323961 2.33661 0.0778619 
3.72024 1.47007 0.10198 3.23859 0.436422 0.665577 -0.387278 -0.111978 -0.993047 
0.037667 0.515692 -0.558364 -0.363564 0.205621 -0.908625 -0.0305044 0.344417 -1.58159 
0.0288634 1.00607 -1.50059 -0.140856 -0.0417336 0.79107 -1.41784 -0.719614 1.57032 
-0.979977 -0.645053 1.02992 2.51249 0.233167 1.78582 2.33735 0.312339 2.79387 
1.43322 1.1289 2.88382 -1.41095 -0.806598 -1.46153 -2.87917 0.271508 -1.12649 
-1.57749 -0.0759382 -1.53229 -1.71582 0.534736 -1.00923 2.50577 -0.523714 -2.47582 
2.55584 -0.43808 -1.75122 1.45755 -0.39528 -0.693427 2.4713 -0.324576 -1.69637 
-3.91719 2.22744 -1.38238 -4.49475 2.57418 -1.27842 -4.73937 2.30194 -0.957232 
0.638637 0.829617 0.0501742 0.501697 1.25089 0.078221 0.799494 0.668965 -0.616123 
0.267897 2.23013 -1.76751 -0.397583 2.7824 -2.02212 -0.45189 1.09491 -1.15155 
0.0893781 0.958812 -1.71878 0.685145 1.1143 -1.98625 1.09921 2.2505 -2.16981 
0.656531 2.38365 -2.06999 0.0684475 1.18156 -1.97944 -1.1788 0.779085 -0.663893 
-0.199861 1.53802 -1.60295 -0.578541 0.681963 -1.28456 -1.41557 1.20921 -1.02763 
-0.388889 3.32734 -1.64436 -0.0707602 3.20528 -1.28236 -0.657054 2.55181 -2.09723 
-0.312983 3.2106 -1.05516 -3.78999 0.623176 -0.400234 -4.05464 0.575087 -1.96385 
-3.28528 -0.083419 -0.251604 0.542483 3.5743 -2.01535 -3.53562 0.862152 -0.157363 
-3.24895 1.31307 -0.356516 -2.37429 0.571542 -0.150224 -2.10732 -0.293323 -0.0272261 
-1.41953 -0.0050946 0.331784 0.3727 -1.21925 0.332416 0.346195 -0.411 0.813442 
0.0996997 -1.05966 0.92793 -1.06206 0.217465 -0.517346 -0.771202 0.301652 -0.681543 
-0.838632 0.37138 -0.229249 -0.757754 0.291961 0.0864516 -0.824754 0.486039 -0.298442 
-2.44883 2.0256 -1.00861 -1.45045 0.531932 -1.05792 -1.7115 1.77141 -1.25779 
-1.97447 2.54999 -1.39886 -1.59033 0.506492 -0.504793 -1.68737 1.40184 -0.3981 
-1.38671 0.896617 -0.609171 -1.29209 1.90992 -0.396451 -1.87649 0.311002 -0.165963 
-1.17004 2.01054 0.387218 -2.28269 1.16623 -0.131808 -2.31812 1.5534 -0.545889 
-2.264 1.02892 -1.03446 -2.24082 0.874936 -0.606131 -2.25417 2.09928 -0.008701 
-0.0581674 -1.05739 0.37542 0.342306 -0.301958 -0.206852 0.558353 -1.01853 0.0995649 
0.653811 -1.83493 0.592695 -1.87329 1.88775 0.405565 -1.36441 1.87308 0.440251 
-2.39146 1.46977 -0.0645447 -2.1961 1.0363 -0.285526 -0.246804 0.324865 0.0775733 
-0.445652 -0.093441 0.450016 -0.0673439 0.105799 0.0503337 -0.152264 -0.515888 0.654539 
0.717234 -0.0975881 0.927789 0.309407 0.0325464 0.847634 0.476873 -0.246462 0.669706 
0.0376735 -0.172756 0.46788 0.667425 -0.438394 0.605814 1.37368 0.228039 0.315475 
1.14668 -0.362476 0.220981 1.07747 -0.0890044 0.371905 -0.912005 -0.278692 0.768472 
-0.866984 -0.264212 0.779423 -0.921205 -0.0934215 -0.190812 -1.62827 0.0204709 0.59702 
-1.48347 -0.176817 0.924457 -0.966293 0.011768 0.515314 1.67051 -0.704487 0.509389 
1.88082 -0.56865 0.788438 -1.2233 2.45207 0.880253 -1.77538 2.30366 1.44625 
-2.17096 1.9803 0.757261 -1.61089 2.29209 1.53752 -2.01585 1.85165 2.59116 
1.41964 -0.427276 -0.958433 0.87536 0.569578 -1.82666 1.53561 0.541826 -2.41416 
1.85574 0.994676 -1.73054 1.20573 -0.659991 -1.22846 1.54083 1.25742 -1.03683 
1.62806 1.38921 -1.52095 1.26177 1.11145 -1.96878 2.00381 0.815339 -1.35055 
1.30933 1.18968 -2.38635 -1.14222 2.03604 0.116794 -1.18117 2.25224 -0.911067 
-0.969865 2.29364 -0.804802 -1.10213 2.43867 -0.425006 -0.35275 2.29661 -2.39218 
0.207768 3.52942 -2.78884 0.304322 3.25042 -2.59693 -0.0743883 3.58431 -1.27647 
0.103108 3.69879 -0.764682 -0.111376 3.05182 -2.33688 0.411422 2.95904 -3.47318 
-0.170042 -0.862624 0.432244 -0.142234 -0.374633 0.182197 0.630547 -0.239695 0.393503 
0.84975 -0.322603 0.876914 0.474719 -0.587083 0.816504 0.0286423 -1.13809 0.811927 
0.137263 -0.251777 -0.0344741 -2.03246 0.625308 0.502851 -2.15988 1.45768 1.45604 
-1.9289 0.311185 0.496869 -1.71023 0.55233 0.0907037 3.57313 1.37173 0.173933 
3.16182 1.27528 0.158806 2.34307 1.12003 -0.31242 0.0926413 1.51047 -0.325417 
0.258143 1.65603 -0.288039 -0.0605481 1.40151 -0.636937 0.852846 1.70699 0.0298909 
1.21884 2.46415 -0.583416 1.60351 0.641139 -0.374355 2.71062 1.75616 -0.449734 
1.59576 0.271193 0.462808 0.425285 -0.598071 -0.177827 2.74733 1.13268 0.171887 
3.63201 1.51455 -0.18255 1.69004 1.49294 -1.48498 1.63077 0.860888 -1.09517 
1.4211 0.894761 -0.701755 1.29442 1.53071 -0.963052 -0.687116 -2.53305 -0.395343 
0.0881154 -0.840905 1.19894 -0.515419 -1.0008 0.983482 -1.31822 -2.97028 -1.58535 
-0.788161 -2.61051 -2.9614 -1.26177 -2.6176 0.106347 -0.732944 -0.68893 0.822167 